 Entering Link 1 = C:\G09W\l1.exe PID=      6776.
  
 Copyright (c) 1988,1990,1992,1993,1995,1998,2003,2009,2013,
            Gaussian, Inc.  All Rights Reserved.
  
 This is part of the Gaussian(R) 09 program.  It is based on
 the Gaussian(R) 03 system (copyright 2003, Gaussian, Inc.),
 the Gaussian(R) 98 system (copyright 1998, Gaussian, Inc.),
 the Gaussian(R) 94 system (copyright 1995, Gaussian, Inc.),
 the Gaussian 92(TM) system (copyright 1992, Gaussian, Inc.),
 the Gaussian 90(TM) system (copyright 1990, Gaussian, Inc.),
 the Gaussian 88(TM) system (copyright 1988, Gaussian, Inc.),
 the Gaussian 86(TM) system (copyright 1986, Carnegie Mellon
 University), and the Gaussian 82(TM) system (copyright 1983,
 Carnegie Mellon University). Gaussian is a federally registered
 trademark of Gaussian, Inc.
  
 This software contains proprietary and confidential information,
 including trade secrets, belonging to Gaussian, Inc.
  
 This software is provided under written license and may be
 used, copied, transmitted, or stored only in accord with that
 written license.
  
 The following legend is applicable only to US Government
 contracts under FAR:
  
                    RESTRICTED RIGHTS LEGEND
  
 Use, reproduction and disclosure by the US Government is
 subject to restrictions as set forth in subparagraphs (a)
 and (c) of the Commercial Computer Software - Restricted
 Rights clause in FAR 52.227-19.
  
 Gaussian, Inc.
 340 Quinnipiac St., Bldg. 40, Wallingford CT 06492
  
  
 ---------------------------------------------------------------
 Warning -- This program may not be used in any manner that
 competes with the business of Gaussian, Inc. or will provide
 assistance to any competitor of Gaussian, Inc.  The licensee
 of this program is prohibited from giving any competitor of
 Gaussian, Inc. access to this program.  By using this program,
 the user acknowledges that Gaussian, Inc. is engaged in the
 business of creating and licensing software in the field of
 computational chemistry and represents and warrants to the
 licensee that it is not a competitor of Gaussian, Inc. and that
 it will not use this program in any manner prohibited above.
 ---------------------------------------------------------------
  

 Cite this work as:
 Gaussian 09, Revision D.01,
 M. J. Frisch, G. W. Trucks, H. B. Schlegel, G. E. Scuseria, 
 M. A. Robb, J. R. Cheeseman, G. Scalmani, V. Barone, B. Mennucci, 
 G. A. Petersson, H. Nakatsuji, M. Caricato, X. Li, H. P. Hratchian, 
 A. F. Izmaylov, J. Bloino, G. Zheng, J. L. Sonnenberg, M. Hada, 
 M. Ehara, K. Toyota, R. Fukuda, J. Hasegawa, M. Ishida, T. Nakajima, 
 Y. Honda, O. Kitao, H. Nakai, T. Vreven, J. A. Montgomery, Jr., 
 J. E. Peralta, F. Ogliaro, M. Bearpark, J. J. Heyd, E. Brothers, 
 K. N. Kudin, V. N. Staroverov, T. Keith, R. Kobayashi, J. Normand, 
 K. Raghavachari, A. Rendell, J. C. Burant, S. S. Iyengar, J. Tomasi, 
 M. Cossi, N. Rega, J. M. Millam, M. Klene, J. E. Knox, J. B. Cross, 
 V. Bakken, C. Adamo, J. Jaramillo, R. Gomperts, R. E. Stratmann, 
 O. Yazyev, A. J. Austin, R. Cammi, C. Pomelli, J. W. Ochterski, 
 R. L. Martin, K. Morokuma, V. G. Zakrzewski, G. A. Voth, 
 P. Salvador, J. J. Dannenberg, S. Dapprich, A. D. Daniels, 
 O. Farkas, J. B. Foresman, J. V. Ortiz, J. Cioslowski, 
 and D. J. Fox, Gaussian, Inc., Wallingford CT, 2013.
 
 ******************************************
 Gaussian 09:  IA32W-G09RevD.01 24-Apr-2013
                26-Oct-2025 
 ******************************************
 %chk=C:\Users\inani\Documents\AG\molecula\ag.chk
 --------------
 #p b3lyp/3-21g
 --------------
 1/38=1/1;
 2/12=2,17=6,18=5,40=1/2;
 3/5=5,11=2,16=1,25=1,30=1,74=-5/1,2,3;
 4//1;
 5/5=2,38=5/2;
 6/7=2,8=2,9=2,10=2,28=1/1;
 99/5=1,9=1/99;
 Leave Link    1 at Sun Oct 26 19:27:46 2025, MaxMem=           0 cpu:         0.0
 (Enter C:\G09W\l101.exe)
 -------------------
 Title Card Required
 -------------------
 Symbolic Z-matrix:
 Charge =  0 Multiplicity = 2
 Ag                   -1.03947   1.39474   0. 
 
 NAtoms=      1 NQM=        1 NQMF=       0 NMMI=      0 NMMIF=      0
                NMic=       0 NMicF=      0.
                    Isotopes and Nuclear Properties:
 (Nuclear quadrupole moments (NQMom) in fm**2, nuclear magnetic moments (NMagM)
  in nuclear magnetons)

  Atom         1
 IAtWgt=         107
 AtmWgt= 106.9050900
 NucSpn=           1
 AtZEff=   0.0000000
 NQMom=    0.0000000
 NMagM=   -0.1135700
 AtZNuc=  47.0000000
 Leave Link  101 at Sun Oct 26 19:27:46 2025, MaxMem=    33554432 cpu:         0.0
 (Enter C:\G09W\l202.exe)
                          Input orientation:                          
 ---------------------------------------------------------------------
 Center     Atomic      Atomic             Coordinates (Angstroms)
 Number     Number       Type             X           Y           Z
 ---------------------------------------------------------------------
      1         47           0       -1.039474    1.394737    0.000000
 ---------------------------------------------------------------------
 Stoichiometry    Ag(2)
 Framework group  OH[O(Ag)]
 Deg. of freedom     0
 Full point group                 OH      NOp  48
 Largest Abelian subgroup         D2H     NOp   8
 Largest concise Abelian subgroup C1      NOp   1
                         Standard orientation:                         
 ---------------------------------------------------------------------
 Center     Atomic      Atomic             Coordinates (Angstroms)
 Number     Number       Type             X           Y           Z
 ---------------------------------------------------------------------
      1         47           0        0.000000    0.000000    0.000000
 ---------------------------------------------------------------------
 Leave Link  202 at Sun Oct 26 19:27:46 2025, MaxMem=    33554432 cpu:         0.0
 (Enter C:\G09W\l301.exe)
 Standard basis: 3-21G (6D, 7F)
 Ernie: Thresh=  0.10000D-02 Tol=  0.10000D-05 Strict=F.
 There are    15 symmetry adapted cartesian basis functions of AG  symmetry.
 There are     3 symmetry adapted cartesian basis functions of B1G symmetry.
 There are     3 symmetry adapted cartesian basis functions of B2G symmetry.
 There are     3 symmetry adapted cartesian basis functions of B3G symmetry.
 There are     0 symmetry adapted cartesian basis functions of AU  symmetry.
 There are     5 symmetry adapted cartesian basis functions of B1U symmetry.
 There are     5 symmetry adapted cartesian basis functions of B2U symmetry.
 There are     5 symmetry adapted cartesian basis functions of B3U symmetry.
 There are    15 symmetry adapted basis functions of AG  symmetry.
 There are     3 symmetry adapted basis functions of B1G symmetry.
 There are     3 symmetry adapted basis functions of B2G symmetry.
 There are     3 symmetry adapted basis functions of B3G symmetry.
 There are     0 symmetry adapted basis functions of AU  symmetry.
 There are     5 symmetry adapted basis functions of B1U symmetry.
 There are     5 symmetry adapted basis functions of B2U symmetry.
 There are     5 symmetry adapted basis functions of B3U symmetry.
    39 basis functions,    87 primitive gaussians,    39 cartesian basis functions
    24 alpha electrons       23 beta electrons
       nuclear repulsion energy         0.0000000000 Hartrees.
 IExCor=  402 DFT=T Ex+Corr=B3LYP ExCW=0 ScaHFX=  0.200000
 ScaDFX=  0.800000  0.720000  1.000000  0.810000 ScalE2=  1.000000  1.000000
 IRadAn=      0 IRanWt=     -1 IRanGd=            0 ICorTp=0 IEmpDi=  4
 NAtoms=    1 NActive=    1 NUniq=    1 SFac= 1.00D+00 NAtFMM=   60 NAOKFM=F Big=F
 Integral buffers will be    262144 words long.
 Raffenetti 2 integral format.
 Two-electron integral symmetry is turned on.
 Leave Link  301 at Sun Oct 26 19:27:46 2025, MaxMem=    33554432 cpu:         0.0
 (Enter C:\G09W\l302.exe)
 NPDir=0 NMtPBC=     1 NCelOv=     1 NCel=       1 NClECP=     1 NCelD=      1
         NCelK=      1 NCelE2=     1 NClLst=     1 CellRange=     0.0.
 One-electron integrals computed using PRISM.
 NBasis=    39 RedAO= T EigKep=  3.51D-03  NBF=    15     3     3     3     0     5     5     5
 NBsUse=    39 1.00D-06 EigRej= -1.00D+00 NBFU=    15     3     3     3     0     5     5     5
 Precomputing XC quadrature grid using
 IXCGrd= 4 IRadAn=           0 IRanWt=          -1 IRanGd=           0 AccXCQ= 0.00D+00.
 Defaulting to unpruned grid for atomic number  47.
 Generated NRdTot=       0 NPtTot=           0 NUsed=           0 NTot=          16
 NSgBfM=    39    39    39    39    39 MxSgAt=     1 MxSgA2=     1.
 Leave Link  302 at Sun Oct 26 19:27:46 2025, MaxMem=    33554432 cpu:         0.0
 (Enter C:\G09W\l303.exe)
 DipDrv:  MaxL=1.
 Leave Link  303 at Sun Oct 26 19:27:46 2025, MaxMem=    33554432 cpu:         0.0
 (Enter C:\G09W\l401.exe)
 ExpMin= 3.49D-02 ExpMax= 1.12D+04 ExpMxC= 1.12D+04 IAcc=3 IRadAn=         5 AccDes= 0.00D+00
 Harris functional with IExCor=  402 and IRadAn=       5 diagonalized for initial guess.
 HarFok:  IExCor=  402 AccDes= 0.00D+00 IRadAn=         5 IDoV= 1 UseB2=F ITyADJ=14
 ICtDFT=  3500011 ScaDFX=  1.000000  1.000000  1.000000  1.000000
 Defaulting to unpruned grid for atomic number  47.
 FoFCou: FMM=F IPFlag=           0 FMFlag=      100000 FMFlg1=           0
         NFxFlg=           0 DoJE=T BraDBF=F KetDBF=T FulRan=T
         wScrn=  0.000000 ICntrl=     500 IOpCl=  0 I1Cent=   200000004 NGrid=           0
         NMat0=    1 NMatS0=      1 NMatT0=    0 NMatD0=    1 NMtDS0=    0 NMtDT0=    0
 Petite list used in FoFCou.
 Harris En= -5176.83022178085    
 JPrj=0 DoOrth=F DoCkMO=F.
 Initial guess orbital symmetries:
 Alpha Orbitals:
       Occupied  (A1G) (A1G) (T1U) (T1U) (T1U) (A1G) (T1U) (T1U)
                 (T1U) (T2G) (T2G) (T2G) (EG) (EG) (A1G) (T1U)
                 (T1U) (T1U) (T2G) (T2G) (T2G) (EG) (EG) (A1G)
       Virtual   (T1U) (T1U) (T1U) (A1G) (T1U) (T1U) (T1U) (A1G)
                 (T2G) (T2G) (T2G) (EG) (EG) (A1G) (A1G)
 Beta  Orbitals:
       Occupied  (A1G) (A1G) (T1U) (T1U) (T1U) (A1G) (T1U) (T1U)
                 (T1U) (T2G) (T2G) (T2G) (EG) (EG) (A1G) (T1U)
                 (T1U) (T1U) (T2G) (T2G) (T2G) (EG) (EG)
       Virtual   (A1G) (T1U) (T1U) (T1U) (A1G) (T1U) (T1U) (T1U)
                 (A1G) (T2G) (T2G) (T2G) (EG) (EG) (A1G) (A1G)
 The electronic state of the initial guess is 2-A1G.
 Initial guess <Sx>= 0.0000 <Sy>= 0.0000 <Sz>= 0.5000 <S**2>= 0.7500 S= 0.5000
 Leave Link  401 at Sun Oct 26 19:27:46 2025, MaxMem=    33554432 cpu:         0.0
 (Enter C:\G09W\l502.exe)
 UHF open shell SCF:
 Using DIIS extrapolation, IDIIS=  1040.
 Integral symmetry usage will be decided dynamically.
 Keep R1 and R2 ints in memory in symmetry-blocked form, NReq=1188818.
 IVT=       23700 IEndB=       23700 NGot=    33554432 MDV=    33438604
 LenX=    33438604 LenY=    33436642
 Requested convergence on RMS density matrix=1.00D-08 within 128 cycles.
 Requested convergence on MAX density matrix=1.00D-06.
 Requested convergence on             energy=1.00D-06.
 No special actions if energy rises.
 FoFCou: FMM=F IPFlag=           0 FMFlag=           0 FMFlg1=           0
         NFxFlg=           0 DoJE=F BraDBF=F KetDBF=F FulRan=T
         wScrn=  0.000000 ICntrl=     600 IOpCl=  0 I1Cent=           0 NGrid=           0
         NMat0=    1 NMatS0=    780 NMatT0=    0 NMatD0=    1 NMtDS0=    0 NMtDT0=    0
 Petite list used in FoFCou.

 Cycle   1  Pass 1  IDiag  1:
 Defaulting to unpruned grid for atomic number  47.
 E= -5176.21751383987    
 DIIS: error= 4.85D-01 at cycle   1 NSaved=   1.
 NSaved= 1 IEnMin= 1 EnMin= -5176.21751383987     IErMin= 1 ErrMin= 4.85D-01
 ErrMax= 4.85D-01  0.00D+00 EMaxC= 1.00D-01 BMatC= 8.39D+00 BMatP= 8.39D+00
 IDIUse=3 WtCom= 0.00D+00 WtEn= 1.00D+00
 Coeff-Com:  0.100D+01
 Coeff-En:   0.100D+01
 Coeff:      0.100D+01
 Gap=     0.157 Goal=   None    Shift=    0.000
 Gap=     0.266 Goal=   None    Shift=    0.000
 GapD=    0.157 DampG=1.000 DampE=0.125 DampFc=0.1250 IDamp=-1.
 Damping current iteration by 1.25D-01
 RMSDP=1.91D-02 MaxDP=4.41D-01              OVMax= 0.00D+00

 Cycle   2  Pass 1  IDiag  1:
 E= -5176.22897924925     Delta-E=       -0.011465409383 Rises=F Damp=T
 DIIS: error= 4.22D-01 at cycle   2 NSaved=   2.
 NSaved= 2 IEnMin= 2 EnMin= -5176.22897924925     IErMin= 2 ErrMin= 4.22D-01
 ErrMax= 4.22D-01  0.00D+00 EMaxC= 1.00D-01 BMatC= 6.28D+00 BMatP= 8.39D+00
 IDIUse=3 WtCom= 0.00D+00 WtEn= 1.00D+00
 Coeff-Com: -0.618D+01 0.718D+01
 Coeff-En:   0.000D+00 0.100D+01
 Coeff:      0.000D+00 0.100D+01
 Gap=     0.155 Goal=   None    Shift=    0.000
 Gap=     0.249 Goal=   None    Shift=    0.000
 RMSDP=1.52D-02 MaxDP=3.47D-01 DE=-1.15D-02 OVMax= 0.00D+00

 Cycle   3  Pass 1  IDiag  1:
 E= -5176.25605457888     Delta-E=       -0.027075329621 Rises=F Damp=F
 DIIS: error= 3.49D-02 at cycle   3 NSaved=   3.
 NSaved= 3 IEnMin= 3 EnMin= -5176.25605457888     IErMin= 3 ErrMin= 3.49D-02
 ErrMax= 3.49D-02  0.00D+00 EMaxC= 1.00D-01 BMatC= 1.88D-01 BMatP= 6.28D+00
 IDIUse=3 WtCom= 6.51D-01 WtEn= 3.49D-01
 Large coefficients: NSaved=  3 BigCof=   20.31 CofMax=   10.00 Det=-3.29D-04
 Inversion failed.  Reducing to  2 matrices.
 Coeff-Com:  0.818D-01 0.918D+00
 Coeff-En:   0.203D+00 0.797D+00
 Coeff:      0.124D+00 0.876D+00
 Gap=     0.142 Goal=   None    Shift=    0.000
 Gap=     0.134 Goal=   None    Shift=    0.000
 RMSDP=8.87D-03 MaxDP=1.89D-01 DE=-2.71D-02 OVMax= 0.00D+00

 Cycle   4  Pass 1  IDiag  1:
 E= -5176.26387216246     Delta-E=       -0.007817583585 Rises=F Damp=F
 DIIS: error= 2.62D-02 at cycle   4 NSaved=   3.
 NSaved= 3 IEnMin= 3 EnMin= -5176.26387216246     IErMin= 3 ErrMin= 2.62D-02
 ErrMax= 2.62D-02  0.00D+00 EMaxC= 1.00D-01 BMatC= 1.18D-01 BMatP= 1.88D-01
 IDIUse=3 WtCom= 7.38D-01 WtEn= 2.62D-01
 Coeff-Com:  0.864D-02 0.447D+00 0.545D+00
 Coeff-En:   0.000D+00 0.398D+00 0.602D+00
 Coeff:      0.638D-02 0.434D+00 0.560D+00
 Gap=     0.148 Goal=   None    Shift=    0.000
 Gap=     0.190 Goal=   None    Shift=    0.000
 RMSDP=3.95D-03 MaxDP=8.04D-02 DE=-7.82D-03 OVMax= 0.00D+00

 Cycle   5  Pass 1  IDiag  1:
 E= -5176.27877645514     Delta-E=       -0.014904292679 Rises=F Damp=F
 DIIS: error= 9.33D-04 at cycle   5 NSaved=   4.
 NSaved= 4 IEnMin= 4 EnMin= -5176.27877645514     IErMin= 4 ErrMin= 9.33D-04
 ErrMax= 9.33D-04  0.00D+00 EMaxC= 1.00D-01 BMatC= 1.61D-04 BMatP= 1.18D-01
 IDIUse=3 WtCom= 9.91D-01 WtEn= 9.33D-03
 Coeff-Com:  0.241D-03 0.213D-01 0.600D-01 0.918D+00
 Coeff-En:   0.000D+00 0.000D+00 0.000D+00 0.100D+01
 Coeff:      0.239D-03 0.211D-01 0.595D-01 0.919D+00
 Gap=     0.148 Goal=   None    Shift=    0.000
 Gap=     0.190 Goal=   None    Shift=    0.000
 RMSDP=1.47D-04 MaxDP=2.93D-03 DE=-1.49D-02 OVMax= 0.00D+00

 Cycle   6  Pass 1  IDiag  1:
 E= -5176.27879810806     Delta-E=       -0.000021652921 Rises=F Damp=F
 DIIS: error= 2.90D-05 at cycle   6 NSaved=   5.
 NSaved= 5 IEnMin= 5 EnMin= -5176.27879810806     IErMin= 5 ErrMin= 2.90D-05
 ErrMax= 2.90D-05  0.00D+00 EMaxC= 1.00D-01 BMatC= 1.18D-07 BMatP= 1.61D-04
 IDIUse=1 WtCom= 1.00D+00 WtEn= 0.00D+00
 Coeff-Com: -0.180D-04-0.146D-02-0.504D-02-0.594D-01 0.107D+01
 Coeff:     -0.180D-04-0.146D-02-0.504D-02-0.594D-01 0.107D+01
 Gap=     0.148 Goal=   None    Shift=    0.000
 Gap=     0.190 Goal=   None    Shift=    0.000
 RMSDP=4.15D-06 MaxDP=8.35D-05 DE=-2.17D-05 OVMax= 0.00D+00

 Cycle   7  Pass 1  IDiag  1:
 E= -5176.27879812365     Delta-E=       -0.000000015586 Rises=F Damp=F
 DIIS: error= 1.25D-06 at cycle   7 NSaved=   6.
 NSaved= 6 IEnMin= 6 EnMin= -5176.27879812365     IErMin= 6 ErrMin= 1.25D-06
 ErrMax= 1.25D-06  0.00D+00 EMaxC= 1.00D-01 BMatC= 1.61D-10 BMatP= 1.18D-07
 IDIUse=1 WtCom= 1.00D+00 WtEn= 0.00D+00
 Coeff-Com:  0.136D-06 0.120D-04 0.285D-03 0.247D-02-0.148D+00 0.115D+01
 Coeff:      0.136D-06 0.120D-04 0.285D-03 0.247D-02-0.148D+00 0.115D+01
 Gap=     0.148 Goal=   None    Shift=    0.000
 Gap=     0.190 Goal=   None    Shift=    0.000
 RMSDP=2.25D-07 MaxDP=4.78D-06 DE=-1.56D-08 OVMax= 0.00D+00

 Cycle   8  Pass 1  IDiag  1:
 E= -5176.27879812367     Delta-E=       -0.000000000025 Rises=F Damp=F
 DIIS: error= 6.07D-08 at cycle   8 NSaved=   7.
 NSaved= 7 IEnMin= 7 EnMin= -5176.27879812367     IErMin= 7 ErrMin= 6.07D-08
 ErrMax= 6.07D-08  0.00D+00 EMaxC= 1.00D-01 BMatC= 3.10D-13 BMatP= 1.61D-10
 IDIUse=1 WtCom= 1.00D+00 WtEn= 0.00D+00
 Coeff-Com:  0.398D-07 0.301D-05 0.624D-05-0.718D-04-0.367D-02 0.811D-02
 Coeff-Com:  0.996D+00
 Coeff:      0.398D-07 0.301D-05 0.624D-05-0.718D-04-0.367D-02 0.811D-02
 Coeff:      0.996D+00
 Gap=     0.148 Goal=   None    Shift=    0.000
 Gap=     0.190 Goal=   None    Shift=    0.000
 RMSDP=1.61D-08 MaxDP=5.78D-07 DE=-2.55D-11 OVMax= 0.00D+00

 Cycle   9  Pass 1  IDiag  1:
 E= -5176.27879812369     Delta-E=       -0.000000000016 Rises=F Damp=F
 DIIS: error= 1.95D-09 at cycle   9 NSaved=   8.
 NSaved= 8 IEnMin= 8 EnMin= -5176.27879812369     IErMin= 8 ErrMin= 1.95D-09
 ErrMax= 1.95D-09  0.00D+00 EMaxC= 1.00D-01 BMatC= 4.98D-16 BMatP= 3.10D-13
 IDIUse=1 WtCom= 1.00D+00 WtEn= 0.00D+00
 Coeff-Com: -0.142D-08-0.130D-06 0.696D-07 0.904D-05-0.446D-05 0.103D-02
 Coeff-Com: -0.110D+00 0.111D+01
 Coeff:     -0.142D-08-0.130D-06 0.696D-07 0.904D-05-0.446D-05 0.103D-02
 Coeff:     -0.110D+00 0.111D+01
 Gap=     0.148 Goal=   None    Shift=    0.000
 Gap=     0.190 Goal=   None    Shift=    0.000
 RMSDP=2.76D-09 MaxDP=1.10D-07 DE=-1.64D-11 OVMax= 0.00D+00

 SCF Done:  E(UB3LYP) =  -5176.27879812     A.U. after    9 cycles
            NFock=  9  Conv=0.28D-08     -V/T= 2.0046
 <Sx>= 0.0000 <Sy>= 0.0000 <Sz>= 0.5000 <S**2>= 0.7501 S= 0.5001
 <L.S>= 0.000000000000E+00
 KE= 5.152528786439D+03 PE=-1.231097370131D+04 EE= 1.982166116743D+03
 Annihilation of the first spin contaminant:
 S**2 before annihilation     0.7501,   after     0.7500
 Leave Link  502 at Sun Oct 26 19:27:46 2025, MaxMem=    33554432 cpu:         0.0
 (Enter C:\G09W\l601.exe)
 Copying SCF densities to generalized density rwf, IOpCl= 1 IROHF=0.

 **********************************************************************

            Population analysis using the SCF density.

 **********************************************************************

 Orbital symmetries:
 Alpha Orbitals:
       Occupied  (A1G) (A1G) (T1U) (T1U) (T1U) (A1G) (T1U) (T1U)
                 (T1U) (T2G) (T2G) (T2G) (EG) (EG) (A1G) (T1U)
                 (T1U) (T1U) (T2G) (T2G) (T2G) (EG) (EG) (A1G)
       Virtual   (T1U) (T1U) (T1U) (A1G) (T1U) (T1U) (T1U) (A1G)
                 (T2G) (T2G) (T2G) (EG) (EG) (A1G) (A1G)
 Beta  Orbitals:
       Occupied  (A1G) (A1G) (T1U) (T1U) (T1U) (A1G) (T1U) (T1U)
                 (T1U) (T2G) (T2G) (T2G) (EG) (EG) (A1G) (T1U)
                 (T1U) (T1U) (T2G) (T2G) (T2G) (EG) (EG)
       Virtual   (A1G) (T1U) (T1U) (T1U) (A1G) (T1U) (T1U) (T1U)
                 (A1G) (EG) (T2G) (T2G) (T2G) (EG) (A1G) (A1G)
 The electronic state is 2-A1G.
 Alpha  occ. eigenvalues -- -898.82854-130.54871-121.05039-121.05039-121.05039
 Alpha  occ. eigenvalues --  -24.15408 -20.12105 -20.12105 -20.12105 -13.62326
 Alpha  occ. eigenvalues --  -13.62326 -13.62326 -13.62326 -13.62326  -3.33006
 Alpha  occ. eigenvalues --   -2.05269  -2.05269  -2.05269  -0.28891  -0.28891
 Alpha  occ. eigenvalues --   -0.28891  -0.28891  -0.28891  -0.15938
 Alpha virt. eigenvalues --   -0.01145  -0.01145  -0.01145   0.08463   0.15319
 Alpha virt. eigenvalues --    0.15319   0.15319   0.70948   1.31268   1.31268
 Alpha virt. eigenvalues --    1.31268   1.31268   1.31268   4.44753 195.50946
  Beta  occ. eigenvalues -- -898.82790-130.54849-121.05027-121.05027-121.05027
  Beta  occ. eigenvalues --  -24.15321 -20.12051 -20.12051 -20.12051 -13.62305
  Beta  occ. eigenvalues --  -13.62305 -13.62305 -13.62305 -13.62305  -3.32813
  Beta  occ. eigenvalues --   -2.05153  -2.05153  -2.05153  -0.28455  -0.28455
  Beta  occ. eigenvalues --   -0.28455  -0.28455  -0.28455
  Beta virt. eigenvalues --   -0.09501   0.01041   0.01041   0.01041   0.10553
  Beta virt. eigenvalues --    0.16721   0.16721   0.16721   0.72042   1.32565
  Beta virt. eigenvalues --    1.32565   1.32565   1.32565   1.32565   4.45316
  Beta virt. eigenvalues --  195.51023
          Condensed to atoms (all electrons):
               1
     1  Ag  47.000000
          Atomic-Atomic Spin Densities.
               1
     1  Ag   1.000000
 Mulliken charges and spin densities:
               1          2
     1  Ag   0.000000   1.000000
 Sum of Mulliken charges =   0.00000   1.00000
 Mulliken charges and spin densities with hydrogens summed into heavy atoms:
               1          2
     1  Ag   0.000000   1.000000
 Electronic spatial extent (au):  <R**2>=             47.7343
 Charge=              0.0000 electrons
 Dipole moment (field-independent basis, Debye):
    X=              0.0000    Y=              0.0000    Z=              0.0000  Tot=              0.0000
 Quadrupole moment (field-independent basis, Debye-Ang):
   XX=            -21.4014   YY=            -21.4014   ZZ=            -21.4014
   XY=              0.0000   XZ=              0.0000   YZ=              0.0000
 Traceless Quadrupole moment (field-independent basis, Debye-Ang):
   XX=              0.0000   YY=              0.0000   ZZ=              0.0000
   XY=              0.0000   XZ=              0.0000   YZ=              0.0000
 Octapole moment (field-independent basis, Debye-Ang**2):
  XXX=              0.0000  YYY=              0.0000  ZZZ=              0.0000  XYY=              0.0000
  XXY=              0.0000  XXZ=              0.0000  XZZ=              0.0000  YZZ=              0.0000
  YYZ=              0.0000  XYZ=              0.0000
 Hexadecapole moment (field-independent basis, Debye-Ang**3):
 XXXX=            -33.4794 YYYY=            -33.4794 ZZZZ=            -33.4794 XXXY=              0.0000
 XXXZ=              0.0000 YYYX=              0.0000 YYYZ=              0.0000 ZZZX=              0.0000
 ZZZY=              0.0000 XXYY=            -11.1598 XXZZ=            -11.1598 YYZZ=            -11.1598
 XXYZ=              0.0000 YYXZ=              0.0000 ZZXY=              0.0000
 N-N= 0.000000000000D+00 E-N=-1.231097370146D+04  KE= 5.152528786439D+03
 Symmetry AG   KE= 2.964094947546D+03
 Symmetry B1G  KE= 1.263081819969D+02
 Symmetry B2G  KE= 1.263081819969D+02
 Symmetry B3G  KE= 1.263081819969D+02
 Symmetry AU   KE= 0.000000000000D+00
 Symmetry B1U  KE= 6.031697643009D+02
 Symmetry B2U  KE= 6.031697643009D+02
 Symmetry B3U  KE= 6.031697643009D+02
                          Isotropic Fermi Contact Couplings
        Atom                 a.u.       MegaHertz       Gauss      10(-4) cm-1
     1  Ag(107             4.38450    -796.95205    -284.37230    -265.83459
 --------------------------------------------------------
       Center         ----  Spin Dipole Couplings  ----
                      3XX-RR        3YY-RR        3ZZ-RR
 --------------------------------------------------------
     1   Atom        0.000000      0.000000      0.000000
 --------------------------------------------------------
                        XY            XZ            YZ
 --------------------------------------------------------
     1   Atom        0.000000      0.000000      0.000000
 --------------------------------------------------------


 ---------------------------------------------------------------------------------
              Anisotropic Spin Dipole Couplings in Principal Axis System
 ---------------------------------------------------------------------------------

       Atom             a.u.   MegaHertz   Gauss  10(-4) cm-1        Axes

              Baa     0.0000     0.000     0.000     0.000  1.0000  0.0000  0.0000
     1 Ag(107 Bbb     0.0000     0.000     0.000     0.000  0.0000  1.0000  0.0000
              Bcc     0.0000     0.000     0.000     0.000  0.0000  0.0000  1.0000
 

 ---------------------------------------------------------------------------------

 No NMR shielding tensors so no spin-rotation constants.
 Leave Link  601 at Sun Oct 26 19:27:46 2025, MaxMem=    33554432 cpu:         0.0
 (Enter C:\G09W\l9999.exe)
 1|1|UNPC-INANI|SP|UB3LYP|3-21G|Ag1(2)|INANI|26-Oct-2025|0||#p b3lyp/3-
 21g||Title Card Required||0,2|Ag,0,-1.03947367,1.39473673,0.||Version=
 IA32W-G09RevD.01|State=2-A1G|HF=-5176.2787981|S2=0.750129|S2-1=0.|S2A=
 0.75|RMSD=2.763e-009|Dipole=0.,0.,0.|Quadrupole=0.,0.,0.,0.,0.,0.|PG=O
 H [O(Ag1)]||@


 AND HERE I AM, FOR ALL MY LORE,
 THE WRETCHED FOOL I WAS BEFORE.
 CALLED MASTER OF ARTS, AND DOCTOR TO BOOT,
 FOR TEN YEARS ALMOST I CONFUTE
 AND UP AND DOWN, WHEREVER IT GOES
 I DRAG MY STUDENTS BY THE NOSE --
 AND SEE THAT FOR ALL OUR SCIENCE AND ART
 WE CAN KNOW NOTHING.  IT BURNS MY HEART.

                                       -- FAUST
 Job cpu time:       0 days  0 hours  0 minutes  1.0 seconds.
 File lengths (MBytes):  RWF=      5 Int=      0 D2E=      0 Chk=      1 Scr=      1
 Normal termination of Gaussian 09 at Sun Oct 26 19:27:47 2025.
