 Entering Link 1 = C:\G09W\l1.exe PID=     17064.
  
 Copyright (c) 1988,1990,1992,1993,1995,1998,2003,2009,2013,
            Gaussian, Inc.  All Rights Reserved.
  
 This is part of the Gaussian(R) 09 program.  It is based on
 the Gaussian(R) 03 system (copyright 2003, Gaussian, Inc.),
 the Gaussian(R) 98 system (copyright 1998, Gaussian, Inc.),
 the Gaussian(R) 94 system (copyright 1995, Gaussian, Inc.),
 the Gaussian 92(TM) system (copyright 1992, Gaussian, Inc.),
 the Gaussian 90(TM) system (copyright 1990, Gaussian, Inc.),
 the Gaussian 88(TM) system (copyright 1988, Gaussian, Inc.),
 the Gaussian 86(TM) system (copyright 1986, Carnegie Mellon
 University), and the Gaussian 82(TM) system (copyright 1983,
 Carnegie Mellon University). Gaussian is a federally registered
 trademark of Gaussian, Inc.
  
 This software contains proprietary and confidential information,
 including trade secrets, belonging to Gaussian, Inc.
  
 This software is provided under written license and may be
 used, copied, transmitted, or stored only in accord with that
 written license.
  
 The following legend is applicable only to US Government
 contracts under FAR:
  
                    RESTRICTED RIGHTS LEGEND
  
 Use, reproduction and disclosure by the US Government is
 subject to restrictions as set forth in subparagraphs (a)
 and (c) of the Commercial Computer Software - Restricted
 Rights clause in FAR 52.227-19.
  
 Gaussian, Inc.
 340 Quinnipiac St., Bldg. 40, Wallingford CT 06492
  
  
 ---------------------------------------------------------------
 Warning -- This program may not be used in any manner that
 competes with the business of Gaussian, Inc. or will provide
 assistance to any competitor of Gaussian, Inc.  The licensee
 of this program is prohibited from giving any competitor of
 Gaussian, Inc. access to this program.  By using this program,
 the user acknowledges that Gaussian, Inc. is engaged in the
 business of creating and licensing software in the field of
 computational chemistry and represents and warrants to the
 licensee that it is not a competitor of Gaussian, Inc. and that
 it will not use this program in any manner prohibited above.
 ---------------------------------------------------------------
  

 Cite this work as:
 Gaussian 09, Revision D.01,
 M. J. Frisch, G. W. Trucks, H. B. Schlegel, G. E. Scuseria, 
 M. A. Robb, J. R. Cheeseman, G. Scalmani, V. Barone, B. Mennucci, 
 G. A. Petersson, H. Nakatsuji, M. Caricato, X. Li, H. P. Hratchian, 
 A. F. Izmaylov, J. Bloino, G. Zheng, J. L. Sonnenberg, M. Hada, 
 M. Ehara, K. Toyota, R. Fukuda, J. Hasegawa, M. Ishida, T. Nakajima, 
 Y. Honda, O. Kitao, H. Nakai, T. Vreven, J. A. Montgomery, Jr., 
 J. E. Peralta, F. Ogliaro, M. Bearpark, J. J. Heyd, E. Brothers, 
 K. N. Kudin, V. N. Staroverov, T. Keith, R. Kobayashi, J. Normand, 
 K. Raghavachari, A. Rendell, J. C. Burant, S. S. Iyengar, J. Tomasi, 
 M. Cossi, N. Rega, J. M. Millam, M. Klene, J. E. Knox, J. B. Cross, 
 V. Bakken, C. Adamo, J. Jaramillo, R. Gomperts, R. E. Stratmann, 
 O. Yazyev, A. J. Austin, R. Cammi, C. Pomelli, J. W. Ochterski, 
 R. L. Martin, K. Morokuma, V. G. Zakrzewski, G. A. Voth, 
 P. Salvador, J. J. Dannenberg, S. Dapprich, A. D. Daniels, 
 O. Farkas, J. B. Foresman, J. V. Ortiz, J. Cioslowski, 
 and D. J. Fox, Gaussian, Inc., Wallingford CT, 2013.
 
 ******************************************
 Gaussian 09:  IA32W-G09RevD.01 24-Apr-2013
                19-Oct-2025 
 ******************************************
 %chk=C:\Users\inani\Documents\AG\AG.chk
 --------------
 #p b3lyp/3-21g
 --------------
 1/38=1/1;
 2/12=2,17=6,18=5,40=1/2;
 3/5=5,11=2,16=1,25=1,30=1,74=-5/1,2,3;
 4//1;
 5/5=2,38=5/2;
 6/7=2,8=2,9=2,10=2,28=1/1;
 99/5=1,9=1/99;
 Leave Link    1 at Sun Oct 19 14:13:12 2025, MaxMem=           0 cpu:         0.0
 (Enter C:\G09W\l101.exe)
 -------------------
 Title Card Required
 -------------------
 Symbolic Z-matrix:
 Charge =  0 Multiplicity = 1
 Ag                   -0.34692   0.42061   0.02247 
 Ag                    0.62004   0.5494    0.24247 
 
 NAtoms=      2 NQM=        2 NQMF=       0 NMMI=      0 NMMIF=      0
                NMic=       0 NMicF=      0.
                    Isotopes and Nuclear Properties:
 (Nuclear quadrupole moments (NQMom) in fm**2, nuclear magnetic moments (NMagM)
  in nuclear magnetons)

  Atom         1           2
 IAtWgt=         107         107
 AtmWgt= 106.9050900 106.9050900
 NucSpn=           1           1
 AtZEff=   0.0000000   0.0000000
 NQMom=    0.0000000   0.0000000
 NMagM=   -0.1135700  -0.1135700
 AtZNuc=  47.0000000  47.0000000
 Leave Link  101 at Sun Oct 19 14:13:12 2025, MaxMem=    33554432 cpu:         0.0
 (Enter C:\G09W\l202.exe)
                          Input orientation:                          
 ---------------------------------------------------------------------
 Center     Atomic      Atomic             Coordinates (Angstroms)
 Number     Number       Type             X           Y           Z
 ---------------------------------------------------------------------
      1         47           0       -0.346916    0.420606    0.022473
      2         47           0        0.620043    0.549404    0.242474
 ---------------------------------------------------------------------
 Stoichiometry    Ag2
 Framework group  D*H[C*(Ag.Ag)]
 Deg. of freedom     1
 Full point group                 D*H     NOp   8
 Largest Abelian subgroup         D2H     NOp   8
 Largest concise Abelian subgroup C2      NOp   2
                         Standard orientation:                         
 ---------------------------------------------------------------------
 Center     Atomic      Atomic             Coordinates (Angstroms)
 Number     Number       Type             X           Y           Z
 ---------------------------------------------------------------------
      1         47           0        0.000000    0.000000    0.500000
      2         47           0        0.000000    0.000000   -0.500000
 ---------------------------------------------------------------------
 Rotational constants (GHZ):      0.0000000      9.4547229      9.4547229
 Leave Link  202 at Sun Oct 19 14:13:12 2025, MaxMem=    33554432 cpu:         0.0
 (Enter C:\G09W\l301.exe)
 Standard basis: 3-21G (6D, 7F)
 Ernie: Thresh=  0.10000D-02 Tol=  0.10000D-05 Strict=F.
 There are    20 symmetry adapted cartesian basis functions of AG  symmetry.
 There are     3 symmetry adapted cartesian basis functions of B1G symmetry.
 There are     8 symmetry adapted cartesian basis functions of B2G symmetry.
 There are     8 symmetry adapted cartesian basis functions of B3G symmetry.
 There are     3 symmetry adapted cartesian basis functions of AU  symmetry.
 There are    20 symmetry adapted cartesian basis functions of B1U symmetry.
 There are     8 symmetry adapted cartesian basis functions of B2U symmetry.
 There are     8 symmetry adapted cartesian basis functions of B3U symmetry.
 There are    20 symmetry adapted basis functions of AG  symmetry.
 There are     3 symmetry adapted basis functions of B1G symmetry.
 There are     8 symmetry adapted basis functions of B2G symmetry.
 There are     8 symmetry adapted basis functions of B3G symmetry.
 There are     3 symmetry adapted basis functions of AU  symmetry.
 There are    20 symmetry adapted basis functions of B1U symmetry.
 There are     8 symmetry adapted basis functions of B2U symmetry.
 There are     8 symmetry adapted basis functions of B3U symmetry.
    78 basis functions,   174 primitive gaussians,    78 cartesian basis functions
    47 alpha electrons       47 beta electrons
       nuclear repulsion energy      1168.9524478392 Hartrees.
 IExCor=  402 DFT=T Ex+Corr=B3LYP ExCW=0 ScaHFX=  0.200000
 ScaDFX=  0.800000  0.720000  1.000000  0.810000 ScalE2=  1.000000  1.000000
 IRadAn=      0 IRanWt=     -1 IRanGd=            0 ICorTp=0 IEmpDi=  4
 NAtoms=    2 NActive=    2 NUniq=    1 SFac= 4.00D+00 NAtFMM=   60 NAOKFM=F Big=F
 Integral buffers will be    262144 words long.
 Raffenetti 2 integral format.
 Two-electron integral symmetry is turned on.
 Leave Link  301 at Sun Oct 19 14:13:12 2025, MaxMem=    33554432 cpu:         0.0
 (Enter C:\G09W\l302.exe)
 NPDir=0 NMtPBC=     1 NCelOv=     1 NCel=       1 NClECP=     1 NCelD=      1
         NCelK=      1 NCelE2=     1 NClLst=     1 CellRange=     0.0.
 One-electron integrals computed using PRISM.
 One-electron integral symmetry used in STVInt
 NBasis=    78 RedAO= T EigKep=  2.43D-05  NBF=    20     3     8     8     3    20     8     8
 NBsUse=    78 1.00D-06 EigRej= -1.00D+00 NBFU=    20     3     8     8     3    20     8     8
 Precomputing XC quadrature grid using
 IXCGrd= 4 IRadAn=           0 IRanWt=          -1 IRanGd=           0 AccXCQ= 0.00D+00.
 Defaulting to unpruned grid for atomic number  47.
 Generated NRdTot=       0 NPtTot=           0 NUsed=           0 NTot=          16
 NSgBfM=    76    76    76    76    76 MxSgAt=     2 MxSgA2=     2.
 Leave Link  302 at Sun Oct 19 14:13:12 2025, MaxMem=    33554432 cpu:         0.0
 (Enter C:\G09W\l303.exe)
 DipDrv:  MaxL=1.
 Leave Link  303 at Sun Oct 19 14:13:12 2025, MaxMem=    33554432 cpu:         0.0
 (Enter C:\G09W\l401.exe)
 ExpMin= 3.49D-02 ExpMax= 1.12D+04 ExpMxC= 1.12D+04 IAcc=3 IRadAn=         5 AccDes= 0.00D+00
 Harris functional with IExCor=  402 and IRadAn=       5 diagonalized for initial guess.
 HarFok:  IExCor=  402 AccDes= 0.00D+00 IRadAn=         5 IDoV= 1 UseB2=F ITyADJ=14
 ICtDFT=  3500011 ScaDFX=  1.000000  1.000000  1.000000  1.000000
 Defaulting to unpruned grid for atomic number  47.
 FoFCou: FMM=F IPFlag=           0 FMFlag=      100000 FMFlg1=           0
         NFxFlg=           0 DoJE=T BraDBF=F KetDBF=T FulRan=T
         wScrn=  0.000000 ICntrl=     500 IOpCl=  0 I1Cent=   200000004 NGrid=           0
         NMat0=    1 NMatS0=      1 NMatT0=    0 NMatD0=    1 NMtDS0=    0 NMtDT0=    0
 Petite list used in FoFCou.
 Harris En= -10343.7200031325    
 JPrj=0 DoOrth=F DoCkMO=F.
 Initial guess orbital symmetries:
       Occupied  (SGU) (SGG) (SGU) (SGG) (SGU) (SGG) (PIG) (PIG)
                 (PIU) (PIU) (SGG) (SGU) (SGG) (SGU) (PIU) (PIU)
                 (PIG) (PIG) (SGG) (PIU) (PIU) (SGU) (PIG) (PIG)
                 (DLTG) (DLTG) (DLTU) (DLTU) (SGG) (SGU) (PIU)
                 (PIU) (SGG) (PIG) (PIG) (SGU) (PIU) (PIU) (SGG)
                 (DLTG) (DLTG) (DLTU) (DLTU) (SGG) (SGU) (PIU)
                 (PIU)
       Virtual   (PIG) (PIG) (SGG) (SGG) (SGU) (PIU) (PIU) (PIG)
                 (PIG) (SGU) (SGG) (PIG) (PIG) (SGU) (SGG) (SGU)
                 (PIU) (PIU) (DLTG) (DLTG) (SGG) (DLTU) (DLTU)
                 (PIG) (PIG) (SGU) (SGU) (SGG) (SGU) (SGG) (SGU)
 The electronic state of the initial guess is 1-SGG.
 Leave Link  401 at Sun Oct 19 14:13:13 2025, MaxMem=    33554432 cpu:         1.0
 (Enter C:\G09W\l502.exe)
 Closed shell SCF:
 Using DIIS extrapolation, IDIIS=  1040.
 Integral symmetry usage will be decided dynamically.
 Keep R1 ints in memory in symmetry-blocked form, NReq=5685550.
 IVT=       37753 IEndB=       37753 NGot=    33554432 MDV=    32866241
 LenX=    32866241 LenY=    32859716
 Requested convergence on RMS density matrix=1.00D-08 within 128 cycles.
 Requested convergence on MAX density matrix=1.00D-06.
 Requested convergence on             energy=1.00D-06.
 No special actions if energy rises.
 FoFCou: FMM=F IPFlag=           0 FMFlag=           0 FMFlg1=           0
         NFxFlg=           0 DoJE=F BraDBF=F KetDBF=F FulRan=T
         wScrn=  0.000000 ICntrl=     600 IOpCl=  0 I1Cent=           0 NGrid=           0
         NMat0=    1 NMatS0=   3081 NMatT0=    0 NMatD0=    1 NMtDS0=    0 NMtDT0=    0
 Petite list used in FoFCou.

 Cycle   1  Pass 1  IDiag  1:
 Defaulting to unpruned grid for atomic number  47.
 E= -10338.0730963770    
 DIIS: error= 5.04D-01 at cycle   1 NSaved=   1.
 NSaved= 1 IEnMin= 1 EnMin= -10338.0730963770     IErMin= 1 ErrMin= 5.04D-01
 ErrMax= 5.04D-01  0.00D+00 EMaxC= 1.00D-01 BMatC= 7.94D+00 BMatP= 7.94D+00
 IDIUse=3 WtCom= 0.00D+00 WtEn= 1.00D+00
 Coeff-Com:  0.100D+01
 Coeff-En:   0.100D+01
 Coeff:      0.100D+01
 Gap=     0.090 Goal=   None    Shift=    0.000
 GapD=    0.090 DampG=0.500 DampE=0.125 DampFc=0.1250 IDamp=-1.
 Damping current iteration by 1.25D-01
 RMSDP=2.57D-01 MaxDP=4.79D+00              OVMax= 0.00D+00

 Cycle   2  Pass 1  IDiag  1:
 E= -10338.9808676645     Delta-E=       -0.907771287522 Rises=F Damp=T
 DIIS: error= 4.32D-01 at cycle   2 NSaved=   2.
 NSaved= 2 IEnMin= 2 EnMin= -10338.9808676645     IErMin= 2 ErrMin= 4.32D-01
 ErrMax= 4.32D-01  0.00D+00 EMaxC= 1.00D-01 BMatC= 4.82D+00 BMatP= 7.94D+00
 IDIUse=3 WtCom= 0.00D+00 WtEn= 1.00D+00
 Coeff-Com: -0.282D+01 0.382D+01
 Coeff-En:   0.000D+00 0.100D+01
 Coeff:      0.000D+00 0.100D+01
 Gap=     0.148 Goal=   None    Shift=    0.000
 RMSDP=2.41D-01 MaxDP=5.43D+00 DE=-9.08D-01 OVMax= 0.00D+00

 Cycle   3  Pass 1  IDiag  1:
 E= -10337.2917060149     Delta-E=        1.689161649598 Rises=F Damp=F
 DIIS: error= 2.53D-01 at cycle   3 NSaved=   3.
 NSaved= 3 IEnMin= 2 EnMin= -10338.9808676645     IErMin= 3 ErrMin= 2.53D-01
 ErrMax= 2.53D-01  0.00D+00 EMaxC= 1.00D-01 BMatC= 4.98D+00 BMatP= 4.82D+00
 IDIUse=3 WtCom= 0.00D+00 WtEn= 1.00D+00
 EnCoef did   100 forward-backward iterations
 Coeff-Com: -0.204D+01 0.288D+01 0.155D+00
 Coeff-En:   0.515D+00 0.322D-01 0.453D+00
 Coeff:      0.515D+00 0.322D-01 0.453D+00
 Gap=     0.000 Goal=   None    Shift=    0.000
 RMSDP=1.85D-01 MaxDP=2.97D+00 DE= 1.69D+00 OVMax= 0.00D+00

 Cycle   4  Pass 1  IDiag  1:
 E= -10341.0929614464     Delta-E=       -3.801255431472 Rises=F Damp=F
 DIIS: error= 4.14D-02 at cycle   4 NSaved=   4.
 NSaved= 4 IEnMin= 4 EnMin= -10341.0929614464     IErMin= 4 ErrMin= 4.14D-02
 ErrMax= 4.14D-02  0.00D+00 EMaxC= 1.00D-01 BMatC= 1.18D-01 BMatP= 4.82D+00
 IDIUse=3 WtCom= 5.86D-01 WtEn= 4.14D-01
 Coeff-Com:  0.258D+00-0.268D+00-0.736D-01 0.108D+01
 Coeff-En:   0.305D-01 0.000D+00 0.000D+00 0.969D+00
 Coeff:      0.164D+00-0.157D+00-0.432D-01 0.104D+01
 Gap=     0.012 Goal=   None    Shift=    0.000
 RMSDP=3.11D-02 MaxDP=5.53D-01 DE=-3.80D+00 OVMax= 0.00D+00

 Cycle   5  Pass 1  IDiag  1:
 E= -10340.7102462599     Delta-E=        0.382715186428 Rises=F Damp=F
 DIIS: error= 8.94D-02 at cycle   5 NSaved=   5.
 NSaved= 5 IEnMin= 4 EnMin= -10341.0929614464     IErMin= 4 ErrMin= 4.14D-02
 ErrMax= 8.94D-02  0.00D+00 EMaxC= 1.00D-01 BMatC= 4.43D-01 BMatP= 1.18D-01
 IDIUse=2 WtCom= 0.00D+00 WtEn= 1.00D+00
 Coeff-En:   0.000D+00 0.000D+00 0.000D+00 0.757D+00 0.243D+00
 Coeff:      0.000D+00 0.000D+00 0.000D+00 0.757D+00 0.243D+00
 Gap=     0.013 Goal=   None    Shift=    0.000
 RMSDP=2.92D-02 MaxDP=3.73D-01 DE= 3.83D-01 OVMax= 0.00D+00

 Cycle   6  Pass 1  IDiag  1:
 E= -10341.1946279318     Delta-E=       -0.484381671815 Rises=F Damp=F
 DIIS: error= 1.14D-02 at cycle   6 NSaved=   6.
 NSaved= 6 IEnMin= 6 EnMin= -10341.1946279318     IErMin= 6 ErrMin= 1.14D-02
 ErrMax= 1.14D-02  0.00D+00 EMaxC= 1.00D-01 BMatC= 8.96D-03 BMatP= 1.18D-01
 IDIUse=3 WtCom= 8.86D-01 WtEn= 1.14D-01
 Coeff-Com: -0.512D-01 0.599D-01-0.332D-03 0.221D+00 0.427D-01 0.728D+00
 Coeff-En:   0.000D+00 0.000D+00 0.000D+00 0.000D+00 0.000D+00 0.100D+01
 Coeff:     -0.454D-01 0.531D-01-0.294D-03 0.196D+00 0.379D-01 0.759D+00
 Gap=     0.012 Goal=   None    Shift=    0.000
 RMSDP=3.37D-03 MaxDP=4.35D-02 DE=-4.84D-01 OVMax= 0.00D+00

 Cycle   7  Pass 1  IDiag  1:
 E= -10341.2004438187     Delta-E=       -0.005815886892 Rises=F Damp=F
 DIIS: error= 2.95D-03 at cycle   7 NSaved=   7.
 NSaved= 7 IEnMin= 7 EnMin= -10341.2004438187     IErMin= 7 ErrMin= 2.95D-03
 ErrMax= 2.95D-03  0.00D+00 EMaxC= 1.00D-01 BMatC= 5.38D-04 BMatP= 8.96D-03
 IDIUse=3 WtCom= 9.71D-01 WtEn= 2.95D-02
 Coeff-Com:  0.594D-03-0.860D-03-0.352D-03-0.345D-01 0.754D-02 0.572D-01
 Coeff-Com:  0.970D+00
 Coeff-En:   0.000D+00 0.000D+00 0.000D+00 0.000D+00 0.000D+00 0.000D+00
 Coeff-En:   0.100D+01
 Coeff:      0.576D-03-0.835D-03-0.342D-03-0.335D-01 0.732D-02 0.555D-01
 Coeff:      0.971D+00
 Gap=     0.013 Goal=   None    Shift=    0.000
 RMSDP=5.24D-04 MaxDP=8.04D-03 DE=-5.82D-03 OVMax= 0.00D+00

 Cycle   8  Pass 1  IDiag  1:
 E= -10341.2007835764     Delta-E=       -0.000339757747 Rises=F Damp=F
 DIIS: error= 6.33D-04 at cycle   8 NSaved=   8.
 NSaved= 8 IEnMin= 8 EnMin= -10341.2007835764     IErMin= 8 ErrMin= 6.33D-04
 ErrMax= 6.33D-04  0.00D+00 EMaxC= 1.00D-01 BMatC= 2.60D-05 BMatP= 5.38D-04
 IDIUse=3 WtCom= 9.94D-01 WtEn= 6.33D-03
 Coeff-Com: -0.136D-03 0.227D-04 0.797D-04-0.738D-02 0.716D-03-0.589D-03
 Coeff-Com: -0.141D+00 0.115D+01
 Coeff-En:   0.000D+00 0.000D+00 0.000D+00 0.000D+00 0.000D+00 0.000D+00
 Coeff-En:   0.000D+00 0.100D+01
 Coeff:     -0.135D-03 0.225D-04 0.792D-04-0.733D-02 0.712D-03-0.585D-03
 Coeff:     -0.140D+00 0.115D+01
 Gap=     0.013 Goal=   None    Shift=    0.000
 RMSDP=1.71D-04 MaxDP=2.98D-03 DE=-3.40D-04 OVMax= 0.00D+00

 Cycle   9  Pass 1  IDiag  1:
 E= -10341.2008041953     Delta-E=       -0.000020618922 Rises=F Damp=F
 DIIS: error= 2.06D-05 at cycle   9 NSaved=   9.
 NSaved= 9 IEnMin= 9 EnMin= -10341.2008041953     IErMin= 9 ErrMin= 2.06D-05
 ErrMax= 2.06D-05  0.00D+00 EMaxC= 1.00D-01 BMatC= 3.48D-08 BMatP= 2.60D-05
 IDIUse=1 WtCom= 1.00D+00 WtEn= 0.00D+00
 Coeff-Com: -0.311D-04 0.370D-04 0.560D-05-0.766D-04 0.368D-04-0.137D-02
 Coeff-Com: -0.103D-01 0.607D-01 0.951D+00
 Coeff:     -0.311D-04 0.370D-04 0.560D-05-0.766D-04 0.368D-04-0.137D-02
 Coeff:     -0.103D-01 0.607D-01 0.951D+00
 Gap=     0.013 Goal=   None    Shift=    0.000
 RMSDP=7.31D-06 MaxDP=1.44D-04 DE=-2.06D-05 OVMax= 0.00D+00

 Cycle  10  Pass 1  IDiag  1:
 E= -10341.2008042279     Delta-E=       -0.000000032560 Rises=F Damp=F
 DIIS: error= 2.38D-06 at cycle  10 NSaved=  10.
 NSaved=10 IEnMin=10 EnMin= -10341.2008042279     IErMin=10 ErrMin= 2.38D-06
 ErrMax= 2.38D-06  0.00D+00 EMaxC= 1.00D-01 BMatC= 3.83D-10 BMatP= 3.48D-08
 IDIUse=1 WtCom= 1.00D+00 WtEn= 0.00D+00
 Coeff-Com: -0.104D-04 0.125D-04-0.755D-06 0.579D-04 0.755D-05-0.143D-03
 Coeff-Com: -0.291D-03-0.590D-02 0.565D-01 0.950D+00
 Coeff:     -0.104D-04 0.125D-04-0.755D-06 0.579D-04 0.755D-05-0.143D-03
 Coeff:     -0.291D-03-0.590D-02 0.565D-01 0.950D+00
 Gap=     0.013 Goal=   None    Shift=    0.000
 RMSDP=9.07D-07 MaxDP=1.68D-05 DE=-3.26D-08 OVMax= 0.00D+00

 Cycle  11  Pass 1  IDiag  1:
 E= -10341.2008042283     Delta-E=       -0.000000000458 Rises=F Damp=F
 DIIS: error= 3.09D-07 at cycle  11 NSaved=  11.
 NSaved=11 IEnMin=11 EnMin= -10341.2008042283     IErMin=11 ErrMin= 3.09D-07
 ErrMax= 3.09D-07  0.00D+00 EMaxC= 1.00D-01 BMatC= 5.70D-12 BMatP= 3.83D-10
 IDIUse=1 WtCom= 1.00D+00 WtEn= 0.00D+00
 Coeff-Com: -0.909D-06 0.109D-05-0.614D-08 0.202D-05 0.639D-06-0.975D-05
 Coeff-Com:  0.125D-04-0.976D-03-0.351D-02 0.232D-01 0.981D+00
 Coeff:     -0.909D-06 0.109D-05-0.614D-08 0.202D-05 0.639D-06-0.975D-05
 Coeff:      0.125D-04-0.976D-03-0.351D-02 0.232D-01 0.981D+00
 Gap=     0.013 Goal=   None    Shift=    0.000
 RMSDP=1.25D-07 MaxDP=2.36D-06 DE=-4.58D-10 OVMax= 0.00D+00

 Cycle  12  Pass 1  IDiag  1:
 E= -10341.2008042283     Delta-E=        0.000000000036 Rises=F Damp=F
 DIIS: error= 9.56D-09 at cycle  12 NSaved=  12.
 NSaved=12 IEnMin=11 EnMin= -10341.2008042283     IErMin=12 ErrMin= 9.56D-09
 ErrMax= 9.56D-09  0.00D+00 EMaxC= 1.00D-01 BMatC= 7.22D-15 BMatP= 5.70D-12
 IDIUse=1 WtCom= 1.00D+00 WtEn= 0.00D+00
 Coeff-Com: -0.517D-07 0.574D-07-0.128D-08-0.122D-06 0.364D-07-0.185D-06
 Coeff-Com:  0.735D-06 0.310D-05-0.538D-03-0.481D-02-0.221D-01 0.103D+01
 Coeff:     -0.517D-07 0.574D-07-0.128D-08-0.122D-06 0.364D-07-0.185D-06
 Coeff:      0.735D-06 0.310D-05-0.538D-03-0.481D-02-0.221D-01 0.103D+01
 Gap=     0.013 Goal=   None    Shift=    0.000
 RMSDP=8.75D-09 MaxDP=1.43D-07 DE= 3.64D-11 OVMax= 0.00D+00

 SCF Done:  E(RB3LYP) =  -10341.2008042     A.U. after   12 cycles
            NFock= 12  Conv=0.87D-08     -V/T= 1.9995
 KE= 1.034680430101D+04 PE=-2.691525517605D+04 EE= 5.058297622965D+03
 Leave Link  502 at Sun Oct 19 14:13:14 2025, MaxMem=    33554432 cpu:         1.0
 (Enter C:\G09W\l601.exe)
 Copying SCF densities to generalized density rwf, IOpCl= 0 IROHF=0.

 **********************************************************************

            Population analysis using the SCF density.

 **********************************************************************

 Orbital symmetries:
       Occupied  (SGU) (SGG) (SGU) (SGG) (SGU) (SGG) (PIG) (PIG)
                 (PIU) (PIU) (SGG) (SGU) (SGG) (SGU) (PIU) (PIG)
                 (PIU) (PIG) (SGG) (SGU) (PIU) (PIU) (PIG) (PIG)
                 (DLTG) (DLTG) (DLTU) (DLTU) (SGG) (SGU) (PIU)
                 (PIU) (SGG) (PIG) (PIG) (SGU) (PIU) (PIU) (?A)
                 (?A) (?A) (DLTU) (DLTU) (SGG) (PIG) (PIG) (PIU)
       Virtual   (PIU) (SGU) (SGG) (SGU) (PIU) (PIG) (SGG) (PIG)
                 (PIU) (SGU) (SGG) (PIG) (PIG) (SGU) (SGG) (PIU)
                 (PIU) (SGU) (?B) (?B) (?B) (DLTU) (DLTU) (PIG)
                 (PIG) (SGU) (SGU) (SGG) (SGU) (SGG) (SGU)
 Unable to determine electronic state:  an orbital has unidentified symmetry.
 Alpha  occ. eigenvalues -- -899.31508-899.31393-131.09951-131.09891-121.61368
 Alpha  occ. eigenvalues -- -121.60091-121.58050-121.57874-121.57629-121.57453
 Alpha  occ. eigenvalues --  -24.92768 -24.91358 -20.96673 -20.93141 -20.80773
 Alpha  occ. eigenvalues --  -20.80453 -20.80170 -20.79850 -14.42205 -14.36882
 Alpha  occ. eigenvalues --  -14.36543 -14.36115 -14.34879 -14.34454 -14.26242
 Alpha  occ. eigenvalues --  -14.26237 -14.26161 -14.26155  -5.82289  -3.66024
 Alpha  occ. eigenvalues --   -3.52129  -3.50019  -3.15153  -2.48930  -2.47049
 Alpha  occ. eigenvalues --   -1.81270  -1.32489  -1.31109  -1.27393  -1.20879
 Alpha  occ. eigenvalues --   -1.20581  -0.64866  -0.64850  -0.31610  -0.24030
 Alpha  occ. eigenvalues --   -0.22308  -0.18152
 Alpha virt. eigenvalues --   -0.16894  -0.12753   0.02097   0.04713   0.04804
 Alpha virt. eigenvalues --    0.04848   0.05142   0.05679   0.06207   0.14315
 Alpha virt. eigenvalues --    0.17941   0.22171   0.23749   0.28950   0.53278
 Alpha virt. eigenvalues --    0.74102   0.76982   0.77088   0.77513   0.77631
 Alpha virt. eigenvalues --    1.06882   1.10881   1.10949   1.19376   1.21289
 Alpha virt. eigenvalues --    1.50056   2.16190   3.88466   4.18482 194.52303
 Alpha virt. eigenvalues --  195.90927
          Condensed to atoms (all electrons):
               1          2
     1  Ag  49.859393  -2.859393
     2  Ag  -2.859393  49.859393
 Mulliken charges:
               1
     1  Ag   0.000000
     2  Ag   0.000000
 Sum of Mulliken charges =   0.00000
 Mulliken charges with hydrogens summed into heavy atoms:
               1
     1  Ag   0.000000
     2  Ag   0.000000
 Electronic spatial extent (au):  <R**2>=            196.8581
 Charge=              0.0000 electrons
 Dipole moment (field-independent basis, Debye):
    X=              0.0000    Y=              0.0000    Z=              0.0000  Tot=              0.0000
 Quadrupole moment (field-independent basis, Debye-Ang):
   XX=            -59.0954   YY=            -45.2653   ZZ=            -47.5449
   XY=              0.0000   XZ=              0.0000   YZ=              0.0000
 Traceless Quadrupole moment (field-independent basis, Debye-Ang):
   XX=             -8.4602   YY=              5.3699   ZZ=              3.0902
   XY=              0.0000   XZ=              0.0000   YZ=              0.0000
 Octapole moment (field-independent basis, Debye-Ang**2):
  XXX=              0.0000  YYY=              0.0000  ZZZ=              0.0000  XYY=              0.0000
  XXY=              0.0000  XXZ=              0.0000  XZZ=              0.0000  YZZ=              0.0000
  YYZ=              0.0000  XYZ=              0.0000
 Hexadecapole moment (field-independent basis, Debye-Ang**3):
 XXXX=           -122.4448 YYYY=            -61.3310 ZZZZ=           -125.4912 XXXY=              0.0000
 XXXZ=              0.0000 YYYX=              0.0000 YYYZ=              0.0000 ZZZX=              0.0000
 ZZZY=              0.0000 XXYY=            -30.6291 XXZZ=            -45.1899 YYZZ=            -34.0602
 XXYZ=              0.0000 YYXZ=              0.0000 ZZXY=              0.0000
 N-N= 1.168952447839D+03 E-N=-2.691525517207D+04  KE= 1.034680430101D+04
 Symmetry AG   KE= 3.577386005200D+03
 Symmetry B1G  KE= 1.279420255377D+02
 Symmetry B2G  KE= 7.370945064449D+02
 Symmetry B3G  KE= 7.368465739055D+02
 Symmetry AU   KE= 1.313918778434D+02
 Symmetry B1U  KE= 3.564852509540D+03
 Symmetry B2U  KE= 7.342733607329D+02
 Symmetry B3U  KE= 7.370174418085D+02
 No NMR shielding tensors so no spin-rotation constants.
 Leave Link  601 at Sun Oct 19 14:13:14 2025, MaxMem=    33554432 cpu:         0.0
 (Enter C:\G09W\l9999.exe)
 1|1|UNPC-PRO|SP|RB3LYP|3-21G|Ag2|INANI|19-Oct-2025|0||#p b3lyp/3-21g||
 Title Card Required||0,1|Ag,0,-0.34691641,0.42060583,0.02247299|Ag,0,0
 .62004294,0.54940433,0.24247429||Version=IA32W-G09RevD.01|State=1-SGG|
 HF=-10341.2008042|RMSD=8.749e-009|Dipole=0.,0.,0.|Quadrupole=2.0015742
 ,3.7021558,-5.70373,-0.5373656,1.6153715,1.5395194|PG=D*H [C*(Ag1.Ag1)
 ]||@


 CONFIDENCE: THAT QUIET ASSURED FEELING YOU HAVE
 JUST BEFORE YOU FALL FLAT ON YOUR FACE.
 Job cpu time:       0 days  0 hours  0 minutes  2.0 seconds.
 File lengths (MBytes):  RWF=      5 Int=      0 D2E=      0 Chk=      1 Scr=      1
 Normal termination of Gaussian 09 at Sun Oct 19 14:13:14 2025.
