 Entering Link 1 = C:\G09W\l1.exe PID=     13768.
  
 Copyright (c) 1988,1990,1992,1993,1995,1998,2003,2009,2013,
            Gaussian, Inc.  All Rights Reserved.
  
 This is part of the Gaussian(R) 09 program.  It is based on
 the Gaussian(R) 03 system (copyright 2003, Gaussian, Inc.),
 the Gaussian(R) 98 system (copyright 1998, Gaussian, Inc.),
 the Gaussian(R) 94 system (copyright 1995, Gaussian, Inc.),
 the Gaussian 92(TM) system (copyright 1992, Gaussian, Inc.),
 the Gaussian 90(TM) system (copyright 1990, Gaussian, Inc.),
 the Gaussian 88(TM) system (copyright 1988, Gaussian, Inc.),
 the Gaussian 86(TM) system (copyright 1986, Carnegie Mellon
 University), and the Gaussian 82(TM) system (copyright 1983,
 Carnegie Mellon University). Gaussian is a federally registered
 trademark of Gaussian, Inc.
  
 This software contains proprietary and confidential information,
 including trade secrets, belonging to Gaussian, Inc.
  
 This software is provided under written license and may be
 used, copied, transmitted, or stored only in accord with that
 written license.
  
 The following legend is applicable only to US Government
 contracts under FAR:
  
                    RESTRICTED RIGHTS LEGEND
  
 Use, reproduction and disclosure by the US Government is
 subject to restrictions as set forth in subparagraphs (a)
 and (c) of the Commercial Computer Software - Restricted
 Rights clause in FAR 52.227-19.
  
 Gaussian, Inc.
 340 Quinnipiac St., Bldg. 40, Wallingford CT 06492
  
  
 ---------------------------------------------------------------
 Warning -- This program may not be used in any manner that
 competes with the business of Gaussian, Inc. or will provide
 assistance to any competitor of Gaussian, Inc.  The licensee
 of this program is prohibited from giving any competitor of
 Gaussian, Inc. access to this program.  By using this program,
 the user acknowledges that Gaussian, Inc. is engaged in the
 business of creating and licensing software in the field of
 computational chemistry and represents and warrants to the
 licensee that it is not a competitor of Gaussian, Inc. and that
 it will not use this program in any manner prohibited above.
 ---------------------------------------------------------------
  

 Cite this work as:
 Gaussian 09, Revision D.01,
 M. J. Frisch, G. W. Trucks, H. B. Schlegel, G. E. Scuseria, 
 M. A. Robb, J. R. Cheeseman, G. Scalmani, V. Barone, B. Mennucci, 
 G. A. Petersson, H. Nakatsuji, M. Caricato, X. Li, H. P. Hratchian, 
 A. F. Izmaylov, J. Bloino, G. Zheng, J. L. Sonnenberg, M. Hada, 
 M. Ehara, K. Toyota, R. Fukuda, J. Hasegawa, M. Ishida, T. Nakajima, 
 Y. Honda, O. Kitao, H. Nakai, T. Vreven, J. A. Montgomery, Jr., 
 J. E. Peralta, F. Ogliaro, M. Bearpark, J. J. Heyd, E. Brothers, 
 K. N. Kudin, V. N. Staroverov, T. Keith, R. Kobayashi, J. Normand, 
 K. Raghavachari, A. Rendell, J. C. Burant, S. S. Iyengar, J. Tomasi, 
 M. Cossi, N. Rega, J. M. Millam, M. Klene, J. E. Knox, J. B. Cross, 
 V. Bakken, C. Adamo, J. Jaramillo, R. Gomperts, R. E. Stratmann, 
 O. Yazyev, A. J. Austin, R. Cammi, C. Pomelli, J. W. Ochterski, 
 R. L. Martin, K. Morokuma, V. G. Zakrzewski, G. A. Voth, 
 P. Salvador, J. J. Dannenberg, S. Dapprich, A. D. Daniels, 
 O. Farkas, J. B. Foresman, J. V. Ortiz, J. Cioslowski, 
 and D. J. Fox, Gaussian, Inc., Wallingford CT, 2013.
 
 ******************************************
 Gaussian 09:  IA32W-G09RevD.01 24-Apr-2013
                30-Mar-2026 
 ******************************************
 %chk=C:\Users\emman\Escritorio\quimica-enlaces\molecula\2Fe.chk
 -------------
 # b3lyp/3-21g
 -------------
 1/38=1/1;
 2/12=2,17=6,18=5,40=1/2;
 3/5=5,11=2,16=1,25=1,30=1,74=-5/1,2,3;
 4//1;
 5/5=2,38=5/2;
 6/7=2,8=2,9=2,10=2,28=1/1;
 99/5=1,9=1/99;
 -----------------------------------------------
 Title Card Required - Distancia 1.400A - Paso 2
 -----------------------------------------------
 Symbolic Z-matrix:
 Charge =  0 Multiplicity = 1
 Fe                   -1.4753    1.30557   0. 
 Fe                   -2.86237   1.11576   0. 
 
                          Input orientation:                          
 ---------------------------------------------------------------------
 Center     Atomic      Atomic             Coordinates (Angstroms)
 Number     Number       Type             X           Y           Z
 ---------------------------------------------------------------------
      1         26           0       -1.475301    1.305574    0.000000
      2         26           0       -2.862374    1.115764    0.000000
 ---------------------------------------------------------------------
 Stoichiometry    Fe2
 Framework group  D*H[C*(Fe.Fe)]
 Deg. of freedom     1
 Full point group                 D*H     NOp   8
 Largest Abelian subgroup         D2H     NOp   8
 Largest concise Abelian subgroup C2      NOp   2
                         Standard orientation:                         
 ---------------------------------------------------------------------
 Center     Atomic      Atomic             Coordinates (Angstroms)
 Number     Number       Type             X           Y           Z
 ---------------------------------------------------------------------
      1         26           0        0.000000    0.000000    0.700000
      2         26           0        0.000000    0.000000   -0.700000
 ---------------------------------------------------------------------
 Rotational constants (GHZ):      0.0000000      9.2195124      9.2195124
 Standard basis: 3-21G (6D, 7F)
 There are    15 symmetry adapted cartesian basis functions of AG  symmetry.
 There are     2 symmetry adapted cartesian basis functions of B1G symmetry.
 There are     6 symmetry adapted cartesian basis functions of B2G symmetry.
 There are     6 symmetry adapted cartesian basis functions of B3G symmetry.
 There are     2 symmetry adapted cartesian basis functions of AU  symmetry.
 There are    15 symmetry adapted cartesian basis functions of B1U symmetry.
 There are     6 symmetry adapted cartesian basis functions of B2U symmetry.
 There are     6 symmetry adapted cartesian basis functions of B3U symmetry.
 There are    15 symmetry adapted basis functions of AG  symmetry.
 There are     2 symmetry adapted basis functions of B1G symmetry.
 There are     6 symmetry adapted basis functions of B2G symmetry.
 There are     6 symmetry adapted basis functions of B3G symmetry.
 There are     2 symmetry adapted basis functions of AU  symmetry.
 There are    15 symmetry adapted basis functions of B1U symmetry.
 There are     6 symmetry adapted basis functions of B2U symmetry.
 There are     6 symmetry adapted basis functions of B3U symmetry.
    58 basis functions,   114 primitive gaussians,    58 cartesian basis functions
    26 alpha electrons       26 beta electrons
       nuclear repulsion energy       255.5169954696 Hartrees.
 NAtoms=    2 NActive=    2 NUniq=    1 SFac= 4.00D+00 NAtFMM=   60 NAOKFM=F Big=F
 Integral buffers will be    262144 words long.
 Raffenetti 2 integral format.
 Two-electron integral symmetry is turned on.
 One-electron integrals computed using PRISM.
 NBasis=    58 RedAO= T EigKep=  2.27D-04  NBF=    15     2     6     6     2    15     6     6
 NBsUse=    58 1.00D-06 EigRej= -1.00D+00 NBFU=    15     2     6     6     2    15     6     6
 ExpMin= 3.64D-02 ExpMax= 3.30D+03 ExpMxC= 3.30D+03 IAcc=3 IRadAn=         5 AccDes= 0.00D+00
 Harris functional with IExCor=  402 and IRadAn=       5 diagonalized for initial guess.
 HarFok:  IExCor=  402 AccDes= 0.00D+00 IRadAn=         5 IDoV= 1 UseB2=F ITyADJ=14
 ICtDFT=  3500011 ScaDFX=  1.000000  1.000000  1.000000  1.000000
 FoFCou: FMM=F IPFlag=           0 FMFlag=      100000 FMFlg1=           0
         NFxFlg=           0 DoJE=T BraDBF=F KetDBF=T FulRan=T
         wScrn=  0.000000 ICntrl=     500 IOpCl=  0 I1Cent=   200000004 NGrid=           0
         NMat0=    1 NMatS0=      1 NMatT0=    0 NMatD0=    1 NMtDS0=    0 NMtDT0=    0
 Petite list used in FoFCou.
 Initial guess orbital symmetries:
       Occupied  (SGU) (SGG) (SGU) (SGG) (SGU) (SGG) (PIG) (PIG)
                 (PIU) (PIU) (SGG) (SGU) (SGG) (PIU) (PIU) (PIG)
                 (PIG) (SGU) (PIU) (PIU) (SGG) (DLTG) (DLTG) (SGG)
                 (DLTU) (DLTU)
       Virtual   (PIG) (PIG) (SGU) (SGU) (PIU) (PIU) (SGG) (PIG)
                 (PIG) (SGU) (SGG) (PIU) (PIU) (SGU) (SGG) (PIG)
                 (PIG) (SGU) (SGG) (SGU) (PIU) (PIU) (DLTG) (DLTG)
                 (SGU) (DLTU) (DLTU) (PIG) (PIG) (SGG) (SGG) (SGU)
 The electronic state of the initial guess is 1-SGG.
 Keep R1 ints in memory in symmetry-blocked form, NReq=2371209.
 Requested convergence on RMS density matrix=1.00D-08 within 128 cycles.
 Requested convergence on MAX density matrix=1.00D-06.
 Requested convergence on             energy=1.00D-06.
 No special actions if energy rises.
 SCF Done:  E(RB3LYP) =  -2514.79966568     A.U. after   18 cycles
            NFock= 18  Conv=0.30D-08     -V/T= 2.0031

 **********************************************************************

            Population analysis using the SCF density.

 **********************************************************************

 Orbital symmetries:
       Occupied  (SGU) (SGG) (SGU) (SGG) (SGU) (SGG) (PIG) (PIU)
                 (PIG) (PIU) (SGG) (SGU) (SGG) (PIU) (PIU) (PIG)
                 (PIG) (SGU) (SGG) (PIU) (PIU) (?A) (?A) (?A) (?B)
                 (?B)
       Virtual   (?B) (PIU) (PIU) (PIG) (PIG) (?B) (SGG) (PIG)
                 (PIG) (SGU) (SGG) (PIU) (PIU) (SGU) (SGG) (PIG)
                 (PIG) (SGU) (SGG) (SGU) (PIU) (PIU) (DLTG) (DLTG)
                 (SGU) (DLTU) (DLTU) (PIG) (PIG) (SGG) (SGG) (SGU)
 Unable to determine electronic state:  an orbital has unidentified symmetry.
 Alpha  occ. eigenvalues -- -254.50571-254.50396 -29.93809 -29.93779 -25.77229
 Alpha  occ. eigenvalues --  -25.76726 -25.71921 -25.71902 -25.71744 -25.71725
 Alpha  occ. eigenvalues --   -3.60801  -3.42846  -2.48884  -2.25931  -2.24873
 Alpha  occ. eigenvalues --   -2.17710  -2.16716  -2.13836  -0.41514  -0.41118
 Alpha  occ. eigenvalues --   -0.40191  -0.25636  -0.23320  -0.22457  -0.16614
 Alpha  occ. eigenvalues --   -0.13029
 Alpha virt. eigenvalues --   -0.08007  -0.06916  -0.06237  -0.05175  -0.04509
 Alpha virt. eigenvalues --   -0.00815   0.01898   0.05054   0.05341   0.07189
 Alpha virt. eigenvalues --    0.07551   0.09641   0.10116   0.14950   0.18039
 Alpha virt. eigenvalues --    0.22755   0.23304   0.63996   1.25495   1.79436
 Alpha virt. eigenvalues --    2.30807   2.31623   2.38242   2.39113   2.49587
 Alpha virt. eigenvalues --    2.63341   2.64153   2.93289   2.94131   2.94808
 Alpha virt. eigenvalues --   19.75126  22.54146
          Condensed to atoms (all electrons):
               1          2
     1  Fe  26.609164  -0.609164
     2  Fe  -0.609164  26.609164
 Mulliken charges:
               1
     1  Fe   0.000000
     2  Fe   0.000000
 Sum of Mulliken charges =   0.00000
 Mulliken charges with hydrogens summed into heavy atoms:
               1
     1  Fe   0.000000
     2  Fe   0.000000
 Electronic spatial extent (au):  <R**2>=            167.3041
 Charge=              0.0000 electrons
 Dipole moment (field-independent basis, Debye):
    X=              0.0000    Y=              0.0000    Z=              0.0000  Tot=              0.0000
 Quadrupole moment (field-independent basis, Debye-Ang):
   XX=            -32.2802   YY=            -31.0918   ZZ=            -39.2721
   XY=              0.0000   XZ=              0.0000   YZ=              0.0000
 Traceless Quadrupole moment (field-independent basis, Debye-Ang):
   XX=              1.9345   YY=              3.1229   ZZ=             -5.0574
   XY=              0.0000   XZ=              0.0000   YZ=              0.0000
 Octapole moment (field-independent basis, Debye-Ang**2):
  XXX=              0.0000  YYY=              0.0000  ZZZ=              0.0000  XYY=              0.0000
  XXY=              0.0000  XXZ=              0.0000  XZZ=              0.0000  YZZ=              0.0000
  YYZ=              0.0000  XYZ=              0.0000
 Hexadecapole moment (field-independent basis, Debye-Ang**3):
 XXXX=            -62.3482 YYYY=            -61.0918 ZZZZ=           -237.9815 XXXY=              0.0000
 XXXZ=              0.0000 YYYX=              0.0000 YYYZ=              0.0000 ZZZX=              0.0000
 ZZZY=              0.0000 XXYY=            -20.6433 XXZZ=            -49.1192 YYZZ=            -48.0141
 XXYZ=              0.0000 YYXZ=              0.0000 ZZXY=              0.0000
 N-N= 2.555169954696D+02 E-N=-6.492321816138D+03  KE= 2.507030326565D+03
 Symmetry AG   KE= 9.532923696435D+02
 Symmetry B1G  KE= 1.356190609463D+01
 Symmetry B2G  KE= 1.410582761765D+02
 Symmetry B3G  KE= 1.410692504777D+02
 Symmetry AU   KE= 1.498352114356D+01
 Symmetry B1U  KE= 9.379465300092D+02
 Symmetry B2U  KE= 1.525448745684D+02
 Symmetry B3U  KE= 1.525735984510D+02
 1|1|UNPC-INANI_LAP|SP|RB3LYP|3-21G|Fe2|EMMAN|30-Mar-2026|0||# b3lyp/3-
 21g||Title Card Required - Distancia 1.400A - Paso 2||0,1|Fe,0,-1.4753
 0069,1.30557429,0.|Fe,0,-2.86237392,1.11576426,0.||Version=IA32W-G09Re
 vD.01|State=1-SGG|HF=-2514.7996657|RMSD=3.002e-009|Dipole=0.,0.,0.|Qua
 drupole=-3.6485348,2.1940664,1.4544683,-0.8147711,0.0160915,-0.117592|
 PG=D*H [C*(Fe1.Fe1)]||@


 THE ENLIGHTENED ONE, BECAUSE HE SAW MANKIND DROWNING  
 IN THE GREAT SEA OF BIRTH, DEATH, AND SORROW, LONGED TO SAVE 
 THEM, FOR THIS HE WAS MOVED TO PITY.                         
 BECAUSE HE SAW MEN OF THE WORLD STRAYING IN FALSE PATHS, AND 
 NONE TO GUIDE THEM, FOR THIS HE WAS MOVED TO PITY.           
                     ..................                       
 BECAUSE HE SAW THE MEN OF THE WORLD PLOUGHING THEIR FIELDS,  
 SOWING THE SEED, TRAFFICKING, HUCKSTERING, BUYING, SELLING,  
 AND AT THE END WINNOWING NOTHING BUT BITTERNESS,             
 FOR THIS HE WAS MOVED TO PITY......                   
                   BUDAH'S PITY - UPSAKA SILA SUTRA           
 Job cpu time:       0 days  0 hours  0 minutes  1.0 seconds.
 File lengths (MBytes):  RWF=      5 Int=      0 D2E=      0 Chk=      1 Scr=      1
 Normal termination of Gaussian 09 at Mon Mar 30 18:10:40 2026.
