 Entering Link 1 = C:\G09W\l1.exe PID=      6772.
  
 Copyright (c) 1988,1990,1992,1993,1995,1998,2003,2009,2013,
            Gaussian, Inc.  All Rights Reserved.
  
 This is part of the Gaussian(R) 09 program.  It is based on
 the Gaussian(R) 03 system (copyright 2003, Gaussian, Inc.),
 the Gaussian(R) 98 system (copyright 1998, Gaussian, Inc.),
 the Gaussian(R) 94 system (copyright 1995, Gaussian, Inc.),
 the Gaussian 92(TM) system (copyright 1992, Gaussian, Inc.),
 the Gaussian 90(TM) system (copyright 1990, Gaussian, Inc.),
 the Gaussian 88(TM) system (copyright 1988, Gaussian, Inc.),
 the Gaussian 86(TM) system (copyright 1986, Carnegie Mellon
 University), and the Gaussian 82(TM) system (copyright 1983,
 Carnegie Mellon University). Gaussian is a federally registered
 trademark of Gaussian, Inc.
  
 This software contains proprietary and confidential information,
 including trade secrets, belonging to Gaussian, Inc.
  
 This software is provided under written license and may be
 used, copied, transmitted, or stored only in accord with that
 written license.
  
 The following legend is applicable only to US Government
 contracts under FAR:
  
                    RESTRICTED RIGHTS LEGEND
  
 Use, reproduction and disclosure by the US Government is
 subject to restrictions as set forth in subparagraphs (a)
 and (c) of the Commercial Computer Software - Restricted
 Rights clause in FAR 52.227-19.
  
 Gaussian, Inc.
 340 Quinnipiac St., Bldg. 40, Wallingford CT 06492
  
  
 ---------------------------------------------------------------
 Warning -- This program may not be used in any manner that
 competes with the business of Gaussian, Inc. or will provide
 assistance to any competitor of Gaussian, Inc.  The licensee
 of this program is prohibited from giving any competitor of
 Gaussian, Inc. access to this program.  By using this program,
 the user acknowledges that Gaussian, Inc. is engaged in the
 business of creating and licensing software in the field of
 computational chemistry and represents and warrants to the
 licensee that it is not a competitor of Gaussian, Inc. and that
 it will not use this program in any manner prohibited above.
 ---------------------------------------------------------------
  

 Cite this work as:
 Gaussian 09, Revision D.01,
 M. J. Frisch, G. W. Trucks, H. B. Schlegel, G. E. Scuseria, 
 M. A. Robb, J. R. Cheeseman, G. Scalmani, V. Barone, B. Mennucci, 
 G. A. Petersson, H. Nakatsuji, M. Caricato, X. Li, H. P. Hratchian, 
 A. F. Izmaylov, J. Bloino, G. Zheng, J. L. Sonnenberg, M. Hada, 
 M. Ehara, K. Toyota, R. Fukuda, J. Hasegawa, M. Ishida, T. Nakajima, 
 Y. Honda, O. Kitao, H. Nakai, T. Vreven, J. A. Montgomery, Jr., 
 J. E. Peralta, F. Ogliaro, M. Bearpark, J. J. Heyd, E. Brothers, 
 K. N. Kudin, V. N. Staroverov, T. Keith, R. Kobayashi, J. Normand, 
 K. Raghavachari, A. Rendell, J. C. Burant, S. S. Iyengar, J. Tomasi, 
 M. Cossi, N. Rega, J. M. Millam, M. Klene, J. E. Knox, J. B. Cross, 
 V. Bakken, C. Adamo, J. Jaramillo, R. Gomperts, R. E. Stratmann, 
 O. Yazyev, A. J. Austin, R. Cammi, C. Pomelli, J. W. Ochterski, 
 R. L. Martin, K. Morokuma, V. G. Zakrzewski, G. A. Voth, 
 P. Salvador, J. J. Dannenberg, S. Dapprich, A. D. Daniels, 
 O. Farkas, J. B. Foresman, J. V. Ortiz, J. Cioslowski, 
 and D. J. Fox, Gaussian, Inc., Wallingford CT, 2013.
 
 ******************************************
 Gaussian 09:  IA32W-G09RevD.01 24-Apr-2013
                30-Mar-2026 
 ******************************************
 %chk=C:\Users\emman\Escritorio\quimica-enlaces\molecula\Fe(dft).chk
 -------------------------------
 # b3lyp/3-21g geom=connectivity
 -------------------------------
 1/38=1,57=2/1;
 2/12=2,17=6,18=5,40=1/2;
 3/5=5,11=2,16=1,25=1,30=1,74=-5/1,2,3;
 4//1;
 5/5=2,38=5/2;
 6/7=2,8=2,9=2,10=2,28=1/1;
 99/5=1,9=1/99;
 ------------------------------------------------
 Title Card Required - Distancia 3.000A - Paso 10
 ------------------------------------------------
 Symbolic Z-matrix:
 Charge =  0 Multiplicity = 1
 Fe                    0.28389   1.05957   0. 
 Fe                   -2.6898    0.66308   0. 
 
                          Input orientation:                          
 ---------------------------------------------------------------------
 Center     Atomic      Atomic             Coordinates (Angstroms)
 Number     Number       Type             X           Y           Z
 ---------------------------------------------------------------------
      1         26           0        0.283888    1.059567    0.000000
      2         26           0       -2.689796    0.663076    0.000000
 ---------------------------------------------------------------------
 Stoichiometry    Fe2
 Framework group  D*H[C*(Fe.Fe)]
 Deg. of freedom     1
 Full point group                 D*H     NOp   8
 Largest Abelian subgroup         D2H     NOp   8
 Largest concise Abelian subgroup C2      NOp   2
                         Standard orientation:                         
 ---------------------------------------------------------------------
 Center     Atomic      Atomic             Coordinates (Angstroms)
 Number     Number       Type             X           Y           Z
 ---------------------------------------------------------------------
      1         26           0        0.000000    0.000000    1.500000
      2         26           0        0.000000    0.000000   -1.500000
 ---------------------------------------------------------------------
 Rotational constants (GHZ):      0.0000000      2.0078049      2.0078049
 Standard basis: 3-21G (6D, 7F)
 There are    15 symmetry adapted cartesian basis functions of AG  symmetry.
 There are     2 symmetry adapted cartesian basis functions of B1G symmetry.
 There are     6 symmetry adapted cartesian basis functions of B2G symmetry.
 There are     6 symmetry adapted cartesian basis functions of B3G symmetry.
 There are     2 symmetry adapted cartesian basis functions of AU  symmetry.
 There are    15 symmetry adapted cartesian basis functions of B1U symmetry.
 There are     6 symmetry adapted cartesian basis functions of B2U symmetry.
 There are     6 symmetry adapted cartesian basis functions of B3U symmetry.
 There are    15 symmetry adapted basis functions of AG  symmetry.
 There are     2 symmetry adapted basis functions of B1G symmetry.
 There are     6 symmetry adapted basis functions of B2G symmetry.
 There are     6 symmetry adapted basis functions of B3G symmetry.
 There are     2 symmetry adapted basis functions of AU  symmetry.
 There are    15 symmetry adapted basis functions of B1U symmetry.
 There are     6 symmetry adapted basis functions of B2U symmetry.
 There are     6 symmetry adapted basis functions of B3U symmetry.
    58 basis functions,   114 primitive gaussians,    58 cartesian basis functions
    26 alpha electrons       26 beta electrons
       nuclear repulsion energy       119.2412644177 Hartrees.
 NAtoms=    2 NActive=    2 NUniq=    1 SFac= 4.00D+00 NAtFMM=   60 NAOKFM=F Big=F
 Integral buffers will be    262144 words long.
 Raffenetti 2 integral format.
 Two-electron integral symmetry is turned on.
 One-electron integrals computed using PRISM.
 NBasis=    58 RedAO= T EigKep=  6.13D-03  NBF=    15     2     6     6     2    15     6     6
 NBsUse=    58 1.00D-06 EigRej= -1.00D+00 NBFU=    15     2     6     6     2    15     6     6
 ExpMin= 3.64D-02 ExpMax= 3.30D+03 ExpMxC= 3.30D+03 IAcc=3 IRadAn=         5 AccDes= 0.00D+00
 Harris functional with IExCor=  402 and IRadAn=       5 diagonalized for initial guess.
 HarFok:  IExCor=  402 AccDes= 0.00D+00 IRadAn=         5 IDoV= 1 UseB2=F ITyADJ=14
 ICtDFT=  3500011 ScaDFX=  1.000000  1.000000  1.000000  1.000000
 FoFCou: FMM=F IPFlag=           0 FMFlag=      100000 FMFlg1=           0
         NFxFlg=           0 DoJE=T BraDBF=F KetDBF=T FulRan=T
         wScrn=  0.000000 ICntrl=     500 IOpCl=  0 I1Cent=   200000004 NGrid=           0
         NMat0=    1 NMatS0=      1 NMatT0=    0 NMatD0=    1 NMtDS0=    0 NMtDT0=    0
 Petite list used in FoFCou.
 Initial guess orbital symmetries:
       Occupied  (SGU) (SGG) (SGU) (SGG) (SGU) (SGG) (PIG) (PIG)
                 (PIU) (PIU) (SGG) (SGU) (SGG) (SGU) (PIG) (PIG)
                 (PIU) (PIU) (SGG) (SGU) (SGG) (PIU) (PIU) (PIG)
                 (PIG) (DLTG)
       Virtual   (DLTG) (DLTU) (DLTU) (SGU) (PIU) (PIU) (SGG) (PIG)
                 (PIG) (SGU) (SGG) (SGG) (PIU) (PIU) (SGU) (PIG)
                 (PIG) (SGU) (SGG) (SGU) (PIU) (PIU) (DLTG) (DLTG)
                 (DLTU) (DLTU) (PIG) (PIG) (SGG) (SGU) (SGG) (SGU)
 Keep R1 ints in memory in symmetry-blocked form, NReq=2371209.
 Requested convergence on RMS density matrix=1.00D-08 within 128 cycles.
 Requested convergence on MAX density matrix=1.00D-06.
 Requested convergence on             energy=1.00D-06.
 No special actions if energy rises.
 SCF Done:  E(RB3LYP) =  -2514.84867569     A.U. after   13 cycles
            NFock= 13  Conv=0.13D-08     -V/T= 2.0035

 **********************************************************************

            Population analysis using the SCF density.

 **********************************************************************

 Orbital symmetries:
       Occupied  (SGU) (SGG) (SGU) (SGG) (PIG) (PIG) (PIU) (PIU)
                 (SGU) (SGG) (SGG) (SGU) (SGG) (PIG) (PIG) (PIU)
                 (PIU) (SGU) (SGG) (PIU) (PIU) (DLTG) (DLTU) (PIG)
                 (PIG) (SGU)
       Virtual   (SGG) (SGU) (PIU) (PIU) (DLTG) (DLTU) (SGG) (PIG)
                 (PIG) (SGU) (SGG) (SGG) (PIU) (PIU) (SGU) (PIG)
                 (PIG) (SGU) (SGG) (SGU) (DLTG) (PIU) (PIU) (DLTU)
                 (PIG) (PIG) (DLTG) (DLTU) (SGG) (SGU) (SGG) (SGU)
 Unable to determine electronic state:  partially filled degenerate orbitals.
 Alpha  occ. eigenvalues -- -254.45646-254.45637 -29.88982 -29.88965 -25.68743
 Alpha  occ. eigenvalues --  -25.68743 -25.68734 -25.68734 -25.68702 -25.68694
 Alpha  occ. eigenvalues --   -3.43292  -3.43287  -2.18531  -2.18465  -2.18465
 Alpha  occ. eigenvalues --   -2.18458  -2.18458  -2.18411  -0.24333  -0.21026
 Alpha  occ. eigenvalues --   -0.21026  -0.20993  -0.20989  -0.20948  -0.20948
 Alpha  occ. eigenvalues --   -0.16388
 Alpha virt. eigenvalues --   -0.06089  -0.05899  -0.05061  -0.05061  -0.03709
 Alpha virt. eigenvalues --   -0.03705  -0.03284   0.00067   0.00067   0.04932
 Alpha virt. eigenvalues --    0.07988   0.11275   0.11639   0.11639   0.13529
 Alpha virt. eigenvalues --    0.14575   0.14575   0.21704   1.32097   1.43958
 Alpha virt. eigenvalues --    2.50875   2.50886   2.50886   2.50888   2.51184
 Alpha virt. eigenvalues --    2.51184   2.54455   2.54467   2.55088   2.58650
 Alpha virt. eigenvalues --   19.44924  20.10997
          Condensed to atoms (all electrons):
               1          2
     1  Fe  26.353553  -0.353553
     2  Fe  -0.353553  26.353553
 Mulliken charges:
               1
     1  Fe   0.000000
     2  Fe   0.000000
 Sum of Mulliken charges =   0.00000
 Mulliken charges with hydrogens summed into heavy atoms:
               1
     1  Fe   0.000000
     2  Fe   0.000000
 Electronic spatial extent (au):  <R**2>=            497.0318
 Charge=              0.0000 electrons
 Dipole moment (field-independent basis, Debye):
    X=              0.0000    Y=              0.0000    Z=              0.0000  Tot=              0.0000
 Quadrupole moment (field-independent basis, Debye-Ang):
   XX=            -34.3419   YY=            -34.3419   ZZ=            -37.8662
   XY=              0.0000   XZ=              0.0000   YZ=              0.0000
 Traceless Quadrupole moment (field-independent basis, Debye-Ang):
   XX=              1.1748   YY=              1.1748   ZZ=             -2.3495
   XY=              0.0000   XZ=              0.0000   YZ=              0.0000
 Octapole moment (field-independent basis, Debye-Ang**2):
  XXX=              0.0000  YYY=              0.0000  ZZZ=              0.0000  XYY=              0.0000
  XXY=              0.0000  XXZ=              0.0000  XZZ=              0.0000  YZZ=              0.0000
  YYZ=              0.0000  XYZ=              0.0000
 Hexadecapole moment (field-independent basis, Debye-Ang**3):
 XXXX=            -73.8301 YYYY=            -73.8301 ZZZZ=           -597.2885 XXXY=              0.0000
 XXXZ=              0.0000 YYYX=              0.0000 YYYZ=              0.0000 ZZZX=              0.0000
 ZZZY=              0.0000 XXYY=            -24.3201 XXZZ=           -111.6056 YYZZ=           -111.6056
 XXYZ=              0.0000 YYXZ=              0.0000 ZZXY=              0.0000
 N-N= 1.192412644177D+02 E-N=-6.222317292901D+03  KE= 2.506121948103D+03
 Symmetry AG   KE= 9.432682048402D+02
 Symmetry B1G  KE= 9.451746911603D-31
 Symmetry B2G  KE= 1.548383560037D+02
 Symmetry B3G  KE= 1.548383560037D+02
 Symmetry AU   KE= 9.327223475824D-31
 Symmetry B1U  KE= 9.434702308973D+02
 Symmetry B2U  KE= 1.548534001791D+02
 Symmetry B3U  KE= 1.548534001791D+02
 1|1|UNPC-INANI_LAP|SP|RB3LYP|3-21G|Fe2|EMMAN|30-Mar-2026|0||# b3lyp/3-
 21g geom=connectivity||Title Card Required - Distancia 3.000A - Paso 1
 0||0,1|Fe,0,0.28388757,1.05956719,0.|Fe,0,-2.68979613,0.66307603,0.||V
 ersion=IA32W-G09RevD.01|HF=-2514.8486757|RMSD=1.304e-009|Dipole=0.,0.,
 0.|Quadrupole=-1.7010597,0.8276456,0.8734141,-0.3432632,0.,0.|PG=D*H [
 C*(Fe1.Fe1)]||@


 MODELS ARE TO BE USED, NOT BELIEVED.

    -- PARAPHRASED BY H. THIEL IN "PRINCIPLES OF ECONOMETRICS"
 Job cpu time:       0 days  0 hours  0 minutes  0.0 seconds.
 File lengths (MBytes):  RWF=      5 Int=      0 D2E=      0 Chk=      1 Scr=      1
 Normal termination of Gaussian 09 at Mon Mar 30 20:32:20 2026.
