 Entering Link 1 = C:\G09W\l1.exe PID=      5304.
  
 Copyright (c) 1988,1990,1992,1993,1995,1998,2003,2009,2013,
            Gaussian, Inc.  All Rights Reserved.
  
 This is part of the Gaussian(R) 09 program.  It is based on
 the Gaussian(R) 03 system (copyright 2003, Gaussian, Inc.),
 the Gaussian(R) 98 system (copyright 1998, Gaussian, Inc.),
 the Gaussian(R) 94 system (copyright 1995, Gaussian, Inc.),
 the Gaussian 92(TM) system (copyright 1992, Gaussian, Inc.),
 the Gaussian 90(TM) system (copyright 1990, Gaussian, Inc.),
 the Gaussian 88(TM) system (copyright 1988, Gaussian, Inc.),
 the Gaussian 86(TM) system (copyright 1986, Carnegie Mellon
 University), and the Gaussian 82(TM) system (copyright 1983,
 Carnegie Mellon University). Gaussian is a federally registered
 trademark of Gaussian, Inc.
  
 This software contains proprietary and confidential information,
 including trade secrets, belonging to Gaussian, Inc.
  
 This software is provided under written license and may be
 used, copied, transmitted, or stored only in accord with that
 written license.
  
 The following legend is applicable only to US Government
 contracts under FAR:
  
                    RESTRICTED RIGHTS LEGEND
  
 Use, reproduction and disclosure by the US Government is
 subject to restrictions as set forth in subparagraphs (a)
 and (c) of the Commercial Computer Software - Restricted
 Rights clause in FAR 52.227-19.
  
 Gaussian, Inc.
 340 Quinnipiac St., Bldg. 40, Wallingford CT 06492
  
  
 ---------------------------------------------------------------
 Warning -- This program may not be used in any manner that
 competes with the business of Gaussian, Inc. or will provide
 assistance to any competitor of Gaussian, Inc.  The licensee
 of this program is prohibited from giving any competitor of
 Gaussian, Inc. access to this program.  By using this program,
 the user acknowledges that Gaussian, Inc. is engaged in the
 business of creating and licensing software in the field of
 computational chemistry and represents and warrants to the
 licensee that it is not a competitor of Gaussian, Inc. and that
 it will not use this program in any manner prohibited above.
 ---------------------------------------------------------------
  

 Cite this work as:
 Gaussian 09, Revision D.01,
 M. J. Frisch, G. W. Trucks, H. B. Schlegel, G. E. Scuseria, 
 M. A. Robb, J. R. Cheeseman, G. Scalmani, V. Barone, B. Mennucci, 
 G. A. Petersson, H. Nakatsuji, M. Caricato, X. Li, H. P. Hratchian, 
 A. F. Izmaylov, J. Bloino, G. Zheng, J. L. Sonnenberg, M. Hada, 
 M. Ehara, K. Toyota, R. Fukuda, J. Hasegawa, M. Ishida, T. Nakajima, 
 Y. Honda, O. Kitao, H. Nakai, T. Vreven, J. A. Montgomery, Jr., 
 J. E. Peralta, F. Ogliaro, M. Bearpark, J. J. Heyd, E. Brothers, 
 K. N. Kudin, V. N. Staroverov, T. Keith, R. Kobayashi, J. Normand, 
 K. Raghavachari, A. Rendell, J. C. Burant, S. S. Iyengar, J. Tomasi, 
 M. Cossi, N. Rega, J. M. Millam, M. Klene, J. E. Knox, J. B. Cross, 
 V. Bakken, C. Adamo, J. Jaramillo, R. Gomperts, R. E. Stratmann, 
 O. Yazyev, A. J. Austin, R. Cammi, C. Pomelli, J. W. Ochterski, 
 R. L. Martin, K. Morokuma, V. G. Zakrzewski, G. A. Voth, 
 P. Salvador, J. J. Dannenberg, S. Dapprich, A. D. Daniels, 
 O. Farkas, J. B. Foresman, J. V. Ortiz, J. Cioslowski, 
 and D. J. Fox, Gaussian, Inc., Wallingford CT, 2013.
 
 ******************************************
 Gaussian 09:  IA32W-G09RevD.01 24-Apr-2013
                30-Mar-2026 
 ******************************************
 %chk=C:\Users\emman\Escritorio\quimica-enlaces\molecula\Fe(dft).chk
 -------------------------------
 # b3lyp/3-21g geom=connectivity
 -------------------------------
 1/38=1,57=2/1;
 2/12=2,17=6,18=5,40=1/2;
 3/5=5,11=2,16=1,25=1,30=1,74=-5/1,2,3;
 4//1;
 5/5=2,38=5/2;
 6/7=2,8=2,9=2,10=2,28=1/1;
 99/5=1,9=1/99;
 ------------------------------------------------
 Title Card Required - Distancia 5.800A - Paso 24
 ------------------------------------------------
 Symbolic Z-matrix:
 Charge =  0 Multiplicity = 1
 Fe                    0.28389   1.05957   0. 
 Fe                   -5.46523   0.29302   0. 
 
                          Input orientation:                          
 ---------------------------------------------------------------------
 Center     Atomic      Atomic             Coordinates (Angstroms)
 Number     Number       Type             X           Y           Z
 ---------------------------------------------------------------------
      1         26           0        0.283888    1.059567    0.000000
      2         26           0       -5.465234    0.293018    0.000000
 ---------------------------------------------------------------------
 Stoichiometry    Fe2
 Framework group  D*H[C*(Fe.Fe)]
 Deg. of freedom     1
 Full point group                 D*H     NOp   8
 Largest Abelian subgroup         D2H     NOp   8
 Largest concise Abelian subgroup C2      NOp   2
                         Standard orientation:                         
 ---------------------------------------------------------------------
 Center     Atomic      Atomic             Coordinates (Angstroms)
 Number     Number       Type             X           Y           Z
 ---------------------------------------------------------------------
      1         26           0        0.000000    0.000000    2.900000
      2         26           0        0.000000    0.000000   -2.900000
 ---------------------------------------------------------------------
 Rotational constants (GHZ):      0.0000000      0.5371654      0.5371654
 Standard basis: 3-21G (6D, 7F)
 There are    15 symmetry adapted cartesian basis functions of AG  symmetry.
 There are     2 symmetry adapted cartesian basis functions of B1G symmetry.
 There are     6 symmetry adapted cartesian basis functions of B2G symmetry.
 There are     6 symmetry adapted cartesian basis functions of B3G symmetry.
 There are     2 symmetry adapted cartesian basis functions of AU  symmetry.
 There are    15 symmetry adapted cartesian basis functions of B1U symmetry.
 There are     6 symmetry adapted cartesian basis functions of B2U symmetry.
 There are     6 symmetry adapted cartesian basis functions of B3U symmetry.
 There are    15 symmetry adapted basis functions of AG  symmetry.
 There are     2 symmetry adapted basis functions of B1G symmetry.
 There are     6 symmetry adapted basis functions of B2G symmetry.
 There are     6 symmetry adapted basis functions of B3G symmetry.
 There are     2 symmetry adapted basis functions of AU  symmetry.
 There are    15 symmetry adapted basis functions of B1U symmetry.
 There are     6 symmetry adapted basis functions of B2U symmetry.
 There are     6 symmetry adapted basis functions of B3U symmetry.
    58 basis functions,   114 primitive gaussians,    58 cartesian basis functions
    26 alpha electrons       26 beta electrons
       nuclear repulsion energy        61.6765160725 Hartrees.
 NAtoms=    2 NActive=    2 NUniq=    1 SFac= 4.00D+00 NAtFMM=   60 NAOKFM=F Big=F
 Integral buffers will be    262144 words long.
 Raffenetti 2 integral format.
 Two-electron integral symmetry is turned on.
 One-electron integrals computed using PRISM.
 NBasis=    58 RedAO= T EigKep=  6.82D-03  NBF=    15     2     6     6     2    15     6     6
 NBsUse=    58 1.00D-06 EigRej= -1.00D+00 NBFU=    15     2     6     6     2    15     6     6
 ExpMin= 3.64D-02 ExpMax= 3.30D+03 ExpMxC= 3.30D+03 IAcc=3 IRadAn=         5 AccDes= 0.00D+00
 Harris functional with IExCor=  402 and IRadAn=       5 diagonalized for initial guess.
 HarFok:  IExCor=  402 AccDes= 0.00D+00 IRadAn=         5 IDoV= 1 UseB2=F ITyADJ=14
 ICtDFT=  3500011 ScaDFX=  1.000000  1.000000  1.000000  1.000000
 FoFCou: FMM=F IPFlag=           0 FMFlag=      100000 FMFlg1=           0
         NFxFlg=           0 DoJE=T BraDBF=F KetDBF=T FulRan=T
         wScrn=  0.000000 ICntrl=     500 IOpCl=  0 I1Cent=   200000004 NGrid=           0
         NMat0=    1 NMatS0=      1 NMatT0=    0 NMatD0=    1 NMtDS0=    0 NMtDT0=    0
 Petite list used in FoFCou.
 Initial guess orbital symmetries:
       Occupied  (SGU) (SGG) (SGU) (SGG) (SGG) (SGU) (PIG) (PIG)
                 (PIU) (PIU) (SGU) (SGG) (SGG) (PIG) (PIG) (SGU)
                 (PIU) (PIU) (SGG) (SGU) (SGU) (SGG) (DLTU) (DLTG)
                 (DLTG) (DLTU)
       Virtual   (PIG) (PIG) (PIU) (PIU) (SGG) (PIU) (PIU) (PIG)
                 (PIG) (SGU) (SGG) (SGU) (PIU) (PIU) (PIG) (PIG)
                 (SGG) (SGU) (SGG) (SGU) (DLTG) (DLTU) (DLTG) (DLTU)
                 (PIU) (PIU) (PIG) (PIG) (SGG) (SGU) (SGG) (SGU)
 The electronic state of the initial guess is 1-SGG.
 Keep R1 ints in memory in symmetry-blocked form, NReq=2371209.
 Requested convergence on RMS density matrix=1.00D-08 within 128 cycles.
 Requested convergence on MAX density matrix=1.00D-06.
 Requested convergence on             energy=1.00D-06.
 No special actions if energy rises.
 SCF Done:  E(RB3LYP) =  -2514.73546721     A.U. after    8 cycles
            NFock=  8  Conv=0.85D-08     -V/T= 2.0034

 **********************************************************************

            Population analysis using the SCF density.

 **********************************************************************

 Orbital symmetries:
       Occupied  (SGU) (SGG) (SGU) (SGG) (SGG) (SGU) (PIG) (PIG)
                 (PIU) (PIU) (SGU) (SGG) (SGG) (SGU) (PIG) (PIG)
                 (PIU) (PIU) (SGU) (SGG) (SGG) (SGU) (DLTU) (DLTG)
                 (DLTU) (DLTG)
       Virtual   (PIG) (PIG) (PIU) (PIU) (SGG) (PIU) (PIU) (PIG)
                 (PIG) (SGU) (SGG) (SGU) (PIU) (PIU) (SGG) (PIG)
                 (PIG) (SGU) (SGG) (SGU) (SGU) (SGG) (PIU) (PIU)
                 (PIG) (PIG) (DLTU) (DLTG) (DLTU) (DLTG) (SGG)
                 (SGU)
 The electronic state is 1-SGG.
 Alpha  occ. eigenvalues -- -254.45187-254.45184 -29.88539 -29.88535 -25.71913
 Alpha  occ. eigenvalues --  -25.71911 -25.66471 -25.66471 -25.66469 -25.66469
 Alpha  occ. eigenvalues --   -3.43011  -3.43010  -2.24341  -2.24337  -2.14849
 Alpha  occ. eigenvalues --   -2.14849  -2.14845  -2.14845  -0.25283  -0.25265
 Alpha  occ. eigenvalues --   -0.19862  -0.19257  -0.15356  -0.15356  -0.15355
 Alpha  occ. eigenvalues --   -0.15355
 Alpha virt. eigenvalues --   -0.05980  -0.05980  -0.05980  -0.05980  -0.04594
 Alpha virt. eigenvalues --   -0.02968  -0.02968  -0.02037  -0.02037  -0.01685
 Alpha virt. eigenvalues --    0.07306   0.09368   0.12842   0.12842   0.14097
 Alpha virt. eigenvalues --    0.14169   0.14169   0.14776   1.32704   1.35093
 Alpha virt. eigenvalues --    2.47433   2.47436   2.52556   2.52556   2.52557
 Alpha virt. eigenvalues --    2.52557   2.55673   2.55673   2.55673   2.55673
 Alpha virt. eigenvalues --   19.38926  19.55233
          Condensed to atoms (all electrons):
               1          2
     1  Fe  25.993323   0.006677
     2  Fe   0.006677  25.993323
 Mulliken charges:
               1
     1  Fe   0.000000
     2  Fe   0.000000
 Sum of Mulliken charges =   0.00000
 Mulliken charges with hydrogens summed into heavy atoms:
               1
     1  Fe   0.000000
     2  Fe   0.000000
 Electronic spatial extent (au):  <R**2>=           1639.6464
 Charge=              0.0000 electrons
 Dipole moment (field-independent basis, Debye):
    X=              0.0000    Y=              0.0000    Z=              0.0000  Tot=              0.0000
 Quadrupole moment (field-independent basis, Debye-Ang):
   XX=            -35.5839   YY=            -35.5839   ZZ=            -33.6753
   XY=              0.0000   XZ=              0.0000   YZ=              0.0000
 Traceless Quadrupole moment (field-independent basis, Debye-Ang):
   XX=             -0.6362   YY=             -0.6362   ZZ=              1.2724
   XY=              0.0000   XZ=              0.0000   YZ=              0.0000
 Octapole moment (field-independent basis, Debye-Ang**2):
  XXX=              0.0000  YYY=              0.0000  ZZZ=              0.0000  XYY=              0.0000
  XXY=              0.0000  XXZ=              0.0000  XZZ=              0.0000  YZZ=              0.0000
  YYZ=              0.0000  XYZ=              0.0000
 Hexadecapole moment (field-independent basis, Debye-Ang**3):
 XXXX=            -78.8253 YYYY=            -78.8253 ZZZZ=          -1784.1052 XXXY=              0.0000
 XXXZ=              0.0000 YYYX=              0.0000 YYYZ=              0.0000 ZZZX=              0.0000
 ZZZY=              0.0000 XXYY=            -26.2751 XXZZ=           -325.4716 YYZZ=           -325.4716
 XXYZ=              0.0000 YYXZ=              0.0000 ZZXY=              0.0000
 N-N= 6.167651607252D+01 E-N=-6.107442240377D+03  KE= 2.506116085336D+03
 Symmetry AG   KE= 9.575536838843D+02
 Symmetry B1G  KE= 1.430462247177D+01
 Symmetry B2G  KE= 1.405669269949D+02
 Symmetry B3G  KE= 1.405669269949D+02
 Symmetry AU   KE= 1.430462215372D+01
 Symmetry B1U  KE= 9.576707361568D+02
 Symmetry B2U  KE= 1.405742833401D+02
 Symmetry B3U  KE= 1.405742833401D+02
 1|1|UNPC-INANI_LAP|SP|RB3LYP|3-21G|Fe2|EMMAN|30-Mar-2026|0||# b3lyp/3-
 21g geom=connectivity||Title Card Required - Distancia 5.800A - Paso 2
 4||0,1|Fe,0,0.28388757,1.05956719,0.|Fe,0,-5.46523425,0.29301761,0.||V
 ersion=IA32W-G09RevD.01|State=1-SGG|HF=-2514.7354672|RMSD=8.474e-009|D
 ipole=0.,0.,0.|Quadrupole=0.9212075,-0.4482108,-0.4729967,0.1858939,0.
 ,0.|PG=D*H [C*(Fe1.Fe1)]||@


 MODELS ARE TO BE USED, NOT BELIEVED.

    -- PARAPHRASED BY H. THIEL IN "PRINCIPLES OF ECONOMETRICS"
 Job cpu time:       0 days  0 hours  0 minutes  1.0 seconds.
 File lengths (MBytes):  RWF=      5 Int=      0 D2E=      0 Chk=      1 Scr=      1
 Normal termination of Gaussian 09 at Mon Mar 30 20:32:31 2026.
