 Entering Link 1 = C:\G09W\l1.exe PID=     10108.
  
 Copyright (c) 1988,1990,1992,1993,1995,1998,2003,2009,2013,
            Gaussian, Inc.  All Rights Reserved.
  
 This is part of the Gaussian(R) 09 program.  It is based on
 the Gaussian(R) 03 system (copyright 2003, Gaussian, Inc.),
 the Gaussian(R) 98 system (copyright 1998, Gaussian, Inc.),
 the Gaussian(R) 94 system (copyright 1995, Gaussian, Inc.),
 the Gaussian 92(TM) system (copyright 1992, Gaussian, Inc.),
 the Gaussian 90(TM) system (copyright 1990, Gaussian, Inc.),
 the Gaussian 88(TM) system (copyright 1988, Gaussian, Inc.),
 the Gaussian 86(TM) system (copyright 1986, Carnegie Mellon
 University), and the Gaussian 82(TM) system (copyright 1983,
 Carnegie Mellon University). Gaussian is a federally registered
 trademark of Gaussian, Inc.
  
 This software contains proprietary and confidential information,
 including trade secrets, belonging to Gaussian, Inc.
  
 This software is provided under written license and may be
 used, copied, transmitted, or stored only in accord with that
 written license.
  
 The following legend is applicable only to US Government
 contracts under FAR:
  
                    RESTRICTED RIGHTS LEGEND
  
 Use, reproduction and disclosure by the US Government is
 subject to restrictions as set forth in subparagraphs (a)
 and (c) of the Commercial Computer Software - Restricted
 Rights clause in FAR 52.227-19.
  
 Gaussian, Inc.
 340 Quinnipiac St., Bldg. 40, Wallingford CT 06492
  
  
 ---------------------------------------------------------------
 Warning -- This program may not be used in any manner that
 competes with the business of Gaussian, Inc. or will provide
 assistance to any competitor of Gaussian, Inc.  The licensee
 of this program is prohibited from giving any competitor of
 Gaussian, Inc. access to this program.  By using this program,
 the user acknowledges that Gaussian, Inc. is engaged in the
 business of creating and licensing software in the field of
 computational chemistry and represents and warrants to the
 licensee that it is not a competitor of Gaussian, Inc. and that
 it will not use this program in any manner prohibited above.
 ---------------------------------------------------------------
  

 Cite this work as:
 Gaussian 09, Revision D.01,
 M. J. Frisch, G. W. Trucks, H. B. Schlegel, G. E. Scuseria, 
 M. A. Robb, J. R. Cheeseman, G. Scalmani, V. Barone, B. Mennucci, 
 G. A. Petersson, H. Nakatsuji, M. Caricato, X. Li, H. P. Hratchian, 
 A. F. Izmaylov, J. Bloino, G. Zheng, J. L. Sonnenberg, M. Hada, 
 M. Ehara, K. Toyota, R. Fukuda, J. Hasegawa, M. Ishida, T. Nakajima, 
 Y. Honda, O. Kitao, H. Nakai, T. Vreven, J. A. Montgomery, Jr., 
 J. E. Peralta, F. Ogliaro, M. Bearpark, J. J. Heyd, E. Brothers, 
 K. N. Kudin, V. N. Staroverov, T. Keith, R. Kobayashi, J. Normand, 
 K. Raghavachari, A. Rendell, J. C. Burant, S. S. Iyengar, J. Tomasi, 
 M. Cossi, N. Rega, J. M. Millam, M. Klene, J. E. Knox, J. B. Cross, 
 V. Bakken, C. Adamo, J. Jaramillo, R. Gomperts, R. E. Stratmann, 
 O. Yazyev, A. J. Austin, R. Cammi, C. Pomelli, J. W. Ochterski, 
 R. L. Martin, K. Morokuma, V. G. Zakrzewski, G. A. Voth, 
 P. Salvador, J. J. Dannenberg, S. Dapprich, A. D. Daniels, 
 O. Farkas, J. B. Foresman, J. V. Ortiz, J. Cioslowski, 
 and D. J. Fox, Gaussian, Inc., Wallingford CT, 2013.
 
 ******************************************
 Gaussian 09:  IA32W-G09RevD.01 24-Apr-2013
                29-Mar-2026 
 ******************************************
 %chk=C:\Users\emman\Escritorio\quimica-enlaces\molecula\H2O.chk
 -------------------------------
 # b3lyp/3-21g geom=connectivity
 -------------------------------
 1/38=1,57=2/1;
 2/12=2,17=6,18=5,40=1/2;
 3/5=5,11=2,16=1,25=1,30=1,74=-5/1,2,3;
 4//1;
 5/5=2,38=5/2;
 6/7=2,8=2,9=2,10=2,28=1/1;
 99/5=1,9=1/99;
 ------------------------------------------------
 Title Card Required - Distancia +3.00A - Paso 12
 ------------------------------------------------
 Symbolic Z-matrix:
 Charge =  0 Multiplicity = 1
 C                    -2.07749  -0.63701  -0.01419 
 H                    -1.26791  -1.3307    0.07671 
 H                    -1.78519  -0.23363   0.93277 
 H                    -1.6622   -0.19109  -0.89373 
 H                    -2.75061  -1.44993  -0.19016 
 C                    -5.59415   2.23338   0.05996 
 H                    -6.24686   1.40249   0.22877 
 H                    -5.17152   2.74508   0.89927 
 H                    -5.33084   2.59344  -0.91263 
 H                    -6.44448   2.88245   0.08335 
 
                          Input orientation:                          
 ---------------------------------------------------------------------
 Center     Atomic      Atomic             Coordinates (Angstroms)
 Number     Number       Type             X           Y           Z
 ---------------------------------------------------------------------
      1          6           0       -2.077494   -0.637006   -0.014195
      2          1           0       -1.267909   -1.330697    0.076715
      3          1           0       -1.785190   -0.233634    0.932774
      4          1           0       -1.662202   -0.191086   -0.893733
      5          1           0       -2.750609   -1.449934   -0.190159
      6          6           0       -5.594149    2.233382    0.059960
      7          1           0       -6.246856    1.402493    0.228767
      8          1           0       -5.171522    2.745084    0.899274
      9          1           0       -5.330835    2.593437   -0.912628
     10          1           0       -6.444482    2.882449    0.083346
 ---------------------------------------------------------------------
                    Distance matrix (angstroms):
                    1          2          3          4          5
     1  C    0.000000
     2  H    1.070000   0.000000
     3  H    1.070000   1.484576   0.000000
     4  H    1.070000   1.547886   1.831137   0.000000
     5  H    1.070000   1.511237   1.916350   1.806750   0.000000
     6  C    4.539987   5.605291   4.621270   4.716755   4.659946
     7  H    4.647813   5.681845   4.804061   4.981822   4.531620
     8  H    4.673967   5.703226   4.510114   4.914397   4.964460
     9  H    4.671956   5.734544   4.895859   4.605735   4.850606
    10  H    5.609514   6.674394   5.669259   5.768145   5.699915
                    6          7          8          9         10
     6  C    0.000000
     7  H    1.070000   0.000000
     8  H    1.070000   1.846205   0.000000
     9  H    1.070000   1.886856   1.825203   0.000000
    10  H    1.070000   1.500157   1.518233   1.521742   0.000000
 Stoichiometry    C2H8
 Framework group  C1[X(C2H8)]
 Deg. of freedom    24
 Full point group                 C1      NOp   1
 Largest Abelian subgroup         C1      NOp   1
 Largest concise Abelian subgroup C1      NOp   1
                         Standard orientation:                         
 ---------------------------------------------------------------------
 Center     Atomic      Atomic             Coordinates (Angstroms)
 Number     Number       Type             X           Y           Z
 ---------------------------------------------------------------------
      1          6           0        2.270014    0.002404   -0.000515
      2          1           0        3.334141   -0.023012   -0.109549
      3          1           0        2.225384   -0.863193   -0.627930
      4          1           0        2.324769   -0.152605    1.056781
      5          1           0        2.265456    1.026348   -0.311027
      6          6           0       -2.269972    0.003220    0.002338
      7          1           0       -2.253220    0.874910   -0.617966
      8          1           0       -2.280299   -0.963917   -0.455308
      9          1           0       -2.277090    0.035699    1.071821
     10          1           0       -3.339395    0.032027   -0.017763
 ---------------------------------------------------------------------
 Rotational constants (GHZ):     72.9118831      2.7969565      2.7944441
 Standard basis: 3-21G (6D, 7F)
 There are    34 symmetry adapted cartesian basis functions of A   symmetry.
 There are    34 symmetry adapted basis functions of A   symmetry.
    34 basis functions,    54 primitive gaussians,    34 cartesian basis functions
    10 alpha electrons       10 beta electrons
       nuclear repulsion energy        38.5957513778 Hartrees.
 NAtoms=   10 NActive=   10 NUniq=   10 SFac= 1.00D+00 NAtFMM=   60 NAOKFM=F Big=F
 Integral buffers will be    262144 words long.
 Raffenetti 2 integral format.
 Two-electron integral symmetry is turned on.
 One-electron integrals computed using PRISM.
 NBasis=    34 RedAO= T EigKep=  2.89D-02  NBF=    34
 NBsUse=    34 1.00D-06 EigRej= -1.00D+00 NBFU=    34
 ExpMin= 1.83D-01 ExpMax= 1.72D+02 ExpMxC= 1.72D+02 IAcc=1 IRadAn=         1 AccDes= 0.00D+00
 Harris functional with IExCor=  402 and IRadAn=       1 diagonalized for initial guess.
 HarFok:  IExCor=  402 AccDes= 0.00D+00 IRadAn=         1 IDoV= 1 UseB2=F ITyADJ=14
 ICtDFT=  3500011 ScaDFX=  1.000000  1.000000  1.000000  1.000000
 FoFCou: FMM=F IPFlag=           0 FMFlag=      100000 FMFlg1=           0
         NFxFlg=           0 DoJE=T BraDBF=F KetDBF=T FulRan=T
         wScrn=  0.000000 ICntrl=     500 IOpCl=  0 I1Cent=   200000004 NGrid=           0
         NMat0=    1 NMatS0=      1 NMatT0=    0 NMatD0=    1 NMtDS0=    0 NMtDT0=    0
 Petite list used in FoFCou.
 Keep R1 ints in memory in canonical form, NReq=1056238.
 Requested convergence on RMS density matrix=1.00D-08 within 128 cycles.
 Requested convergence on MAX density matrix=1.00D-06.
 Requested convergence on             energy=1.00D-06.
 No special actions if energy rises.
 Integral accuracy reduced to 1.0D-05 until final iterations.
 Initial convergence to 1.0D-05 achieved.  Increase integral accuracy.
 SCF Done:  E(RB3LYP) =  -80.5143997169     A.U. after   10 cycles
            NFock= 10  Conv=0.32D-08     -V/T= 2.0060

 **********************************************************************

            Population analysis using the SCF density.

 **********************************************************************

 Orbital symmetries:
       Occupied  (A) (A) (A) (A) (A) (A) (A) (A) (A) (A)
       Virtual   (A) (A) (A) (A) (A) (A) (A) (A) (A) (A) (A) (A)
                 (A) (A) (A) (A) (A) (A) (A) (A) (A) (A) (A) (A)
 The electronic state is 1-A.
 Alpha  occ. eigenvalues --  -10.08926 -10.08925  -0.71429  -0.71414  -0.42129
 Alpha  occ. eigenvalues --   -0.41640  -0.40493  -0.40066  -0.33039  -0.32755
 Alpha virt. eigenvalues --    0.13612   0.13808   0.16367   0.17508   0.20620
 Alpha virt. eigenvalues --    0.20875   0.21502   0.21817   0.66984   0.70421
 Alpha virt. eigenvalues --    0.70590   0.71116   0.73128   0.74242   0.99017
 Alpha virt. eigenvalues --    1.00534   1.07983   1.08321   1.09247   1.09619
 Alpha virt. eigenvalues --    1.16352   1.16441   1.75441   1.75708
          Condensed to atoms (all electrons):
               1          2          3          4          5          6
     1  C    5.349098   0.307609   0.381767   0.378034   0.381211   0.000094
     2  H    0.307609   0.667336  -0.061037  -0.050270  -0.056768   0.000000
     3  H    0.381767  -0.061037   0.509327  -0.019698  -0.011511   0.000007
     4  H    0.378034  -0.050270  -0.019698   0.512996  -0.022347   0.000003
     5  H    0.381211  -0.056768  -0.011511  -0.022347   0.507134   0.000005
     6  C    0.000094   0.000000   0.000007   0.000003   0.000005   5.347701
     7  H    0.000005   0.000000   0.000000   0.000000   0.000001   0.381645
     8  H    0.000004   0.000000   0.000001   0.000000   0.000000   0.378572
     9  H    0.000005   0.000000   0.000000   0.000001   0.000000   0.381218
    10  H    0.000000   0.000000   0.000000   0.000000   0.000000   0.307249
               7          8          9         10
     1  C    0.000005   0.000004   0.000005   0.000000
     2  H    0.000000   0.000000   0.000000   0.000000
     3  H    0.000000   0.000001   0.000000   0.000000
     4  H    0.000000   0.000000   0.000001   0.000000
     5  H    0.000001   0.000000   0.000000   0.000000
     6  C    0.381645   0.378572   0.381218   0.307249
     7  H    0.508343  -0.018177  -0.014315  -0.058382
     8  H   -0.018177   0.514315  -0.020394  -0.054965
     9  H   -0.014315  -0.020394   0.506771  -0.054916
    10  H   -0.058382  -0.054965  -0.054916   0.667674
 Mulliken charges:
               1
     1  C   -0.797828
     2  H    0.193131
     3  H    0.201144
     4  H    0.201281
     5  H    0.202275
     6  C   -0.796494
     7  H    0.200879
     8  H    0.200643
     9  H    0.201631
    10  H    0.193339
 Sum of Mulliken charges =   0.00000
 Mulliken charges with hydrogens summed into heavy atoms:
               1
     1  C    0.000002
     6  C   -0.000002
 Electronic spatial extent (au):  <R**2>=            467.1420
 Charge=              0.0000 electrons
 Dipole moment (field-independent basis, Debye):
    X=             -0.0015    Y=             -0.0140    Z=             -0.0472  Tot=              0.0492
 Quadrupole moment (field-independent basis, Debye-Ang):
   XX=            -11.1537   YY=            -15.6305   ZZ=            -15.8781
   XY=             -0.0485   XZ=             -0.0716   YZ=             -0.0019
 Traceless Quadrupole moment (field-independent basis, Debye-Ang):
   XX=              3.0671   YY=             -1.4097   ZZ=             -1.6574
   XY=             -0.0485   XZ=             -0.0716   YZ=             -0.0019
 Octapole moment (field-independent basis, Debye-Ang**2):
  XXX=             -0.1033  YYY=              0.1772  ZZZ=              1.4472  XYY=              0.4558
  XXY=             -0.0334  XXZ=             -0.4987  XZZ=             -0.4249  YZZ=             -0.2016
  YYZ=             -1.4532  XYZ=              0.4533
 Hexadecapole moment (field-independent basis, Debye-Ang**3):
 XXXX=           -554.1183 YYYY=            -28.4205 ZZZZ=            -28.2602 XXXY=             -0.4834
 XXXZ=             -0.7701 YYYX=              1.2594 YYYZ=              0.0670 ZZZX=             -0.1346
 ZZZY=             -0.0882 XXYY=            -95.0743 XXZZ=            -96.1911 YYZZ=             -9.5557
 XXYZ=             -0.0548 YYXZ=              0.2097 ZZXY=             -1.2096
 N-N= 3.859575137782D+01 E-N=-2.623902434700D+02  KE= 8.003298138115D+01
 1|1|UNPC-INANI_LAP|SP|RB3LYP|3-21G|C2H8|EMMAN|29-Mar-2026|0||# b3lyp/3
 -21g geom=connectivity||Title Card Required - Distancia +3.00A - Paso 
 12||0,1|C,0,-2.07749416,-0.63700562,-0.01419458|H,0,-1.26790947,-1.330
 69728,0.07671479|H,0,-1.78518986,-0.23363379,0.93277394|H,0,-1.6622021
 8,-0.19108573,-0.89373311|H,0,-2.75060946,-1.44993395,-0.19015855|C,0,
 -5.59414877,2.23338216,0.05995969|H,0,-6.24685628,1.40249293,0.2287672
 3|H,0,-5.17152237,2.74508431,0.89927361|H,0,-5.33083508,2.59343694,-0.
 91262781|H,0,-6.4444816,2.88244855,0.08334581||Version=IA32W-G09RevD.0
 1|State=1-A|HF=-80.5143997|RMSD=3.220e-009|Dipole=-0.002308,-0.0023846
 ,0.0190818|Quadrupole=0.9462109,0.2520384,-1.1982494,-1.6461792,0.0492
 704,0.0529972|PG=C01 [X(C2H8)]||@


 IF YOU BELIEVE CERTAIN WORDS, YOU BELIEVE THEIR HIDDEN ARGUMENTS.
 WHEN YOU BELIEVE SOMETHING IS RIGHT OR WRONG, TRUE OR FALSE, 
 YOU BELIEVE THE ASSUMPTIONS IN THE WORDS WHICH EXPRESS THE ARGUMENTS.
 SUCH ASSUMPTIONS ARE OFTEN FULL OF HOLES, BUT REMAIN MOST PRECIOUS 
 TO THE CONVINCED.

                 -- THE OPEN-ENDED PROOF FROM THE PANOPLIA PROPHETICA
                    CHILDREN OF DUNE BY FRANK HERBERT
 Job cpu time:       0 days  0 hours  0 minutes  3.0 seconds.
 File lengths (MBytes):  RWF=      5 Int=      0 D2E=      0 Chk=      1 Scr=      1
 Normal termination of Gaussian 09 at Sun Mar 29 02:37:24 2026.
