 Entering Link 1 = C:\G09W\l1.exe PID=      4196.
  
 Copyright (c) 1988,1990,1992,1993,1995,1998,2003,2009,2013,
            Gaussian, Inc.  All Rights Reserved.
  
 This is part of the Gaussian(R) 09 program.  It is based on
 the Gaussian(R) 03 system (copyright 2003, Gaussian, Inc.),
 the Gaussian(R) 98 system (copyright 1998, Gaussian, Inc.),
 the Gaussian(R) 94 system (copyright 1995, Gaussian, Inc.),
 the Gaussian 92(TM) system (copyright 1992, Gaussian, Inc.),
 the Gaussian 90(TM) system (copyright 1990, Gaussian, Inc.),
 the Gaussian 88(TM) system (copyright 1988, Gaussian, Inc.),
 the Gaussian 86(TM) system (copyright 1986, Carnegie Mellon
 University), and the Gaussian 82(TM) system (copyright 1983,
 Carnegie Mellon University). Gaussian is a federally registered
 trademark of Gaussian, Inc.
  
 This software contains proprietary and confidential information,
 including trade secrets, belonging to Gaussian, Inc.
  
 This software is provided under written license and may be
 used, copied, transmitted, or stored only in accord with that
 written license.
  
 The following legend is applicable only to US Government
 contracts under FAR:
  
                    RESTRICTED RIGHTS LEGEND
  
 Use, reproduction and disclosure by the US Government is
 subject to restrictions as set forth in subparagraphs (a)
 and (c) of the Commercial Computer Software - Restricted
 Rights clause in FAR 52.227-19.
  
 Gaussian, Inc.
 340 Quinnipiac St., Bldg. 40, Wallingford CT 06492
  
  
 ---------------------------------------------------------------
 Warning -- This program may not be used in any manner that
 competes with the business of Gaussian, Inc. or will provide
 assistance to any competitor of Gaussian, Inc.  The licensee
 of this program is prohibited from giving any competitor of
 Gaussian, Inc. access to this program.  By using this program,
 the user acknowledges that Gaussian, Inc. is engaged in the
 business of creating and licensing software in the field of
 computational chemistry and represents and warrants to the
 licensee that it is not a competitor of Gaussian, Inc. and that
 it will not use this program in any manner prohibited above.
 ---------------------------------------------------------------
  

 Cite this work as:
 Gaussian 09, Revision D.01,
 M. J. Frisch, G. W. Trucks, H. B. Schlegel, G. E. Scuseria, 
 M. A. Robb, J. R. Cheeseman, G. Scalmani, V. Barone, B. Mennucci, 
 G. A. Petersson, H. Nakatsuji, M. Caricato, X. Li, H. P. Hratchian, 
 A. F. Izmaylov, J. Bloino, G. Zheng, J. L. Sonnenberg, M. Hada, 
 M. Ehara, K. Toyota, R. Fukuda, J. Hasegawa, M. Ishida, T. Nakajima, 
 Y. Honda, O. Kitao, H. Nakai, T. Vreven, J. A. Montgomery, Jr., 
 J. E. Peralta, F. Ogliaro, M. Bearpark, J. J. Heyd, E. Brothers, 
 K. N. Kudin, V. N. Staroverov, T. Keith, R. Kobayashi, J. Normand, 
 K. Raghavachari, A. Rendell, J. C. Burant, S. S. Iyengar, J. Tomasi, 
 M. Cossi, N. Rega, J. M. Millam, M. Klene, J. E. Knox, J. B. Cross, 
 V. Bakken, C. Adamo, J. Jaramillo, R. Gomperts, R. E. Stratmann, 
 O. Yazyev, A. J. Austin, R. Cammi, C. Pomelli, J. W. Ochterski, 
 R. L. Martin, K. Morokuma, V. G. Zakrzewski, G. A. Voth, 
 P. Salvador, J. J. Dannenberg, S. Dapprich, A. D. Daniels, 
 O. Farkas, J. B. Foresman, J. V. Ortiz, J. Cioslowski, 
 and D. J. Fox, Gaussian, Inc., Wallingford CT, 2013.
 
 ******************************************
 Gaussian 09:  IA32W-G09RevD.01 24-Apr-2013
                29-Mar-2026 
 ******************************************
 %chk=C:\Users\emman\Escritorio\quimica-enlaces\molecula\H2O.chk
 -------------------------------
 # b3lyp/3-21g geom=connectivity
 -------------------------------
 1/38=1,57=2/1;
 2/12=2,17=6,18=5,40=1/2;
 3/5=5,11=2,16=1,25=1,30=1,74=-5/1,2,3;
 4//1;
 5/5=2,38=5/2;
 6/7=2,8=2,9=2,10=2,28=1/1;
 99/5=1,9=1/99;
 -----------------------------------------------
 Title Card Required - Distancia +2.00A - Paso 8
 -----------------------------------------------
 Symbolic Z-matrix:
 Charge =  0 Multiplicity = 1
 C                    -2.07749  -0.63701  -0.01419 
 H                    -1.26791  -1.3307    0.07671 
 H                    -1.78519  -0.23363   0.93277 
 H                    -1.6622   -0.19109  -0.89373 
 H                    -2.75061  -1.44993  -0.19016 
 C                    -4.81941   1.60136   0.04195 
 H                    -5.47211   0.77047   0.21076 
 H                    -4.39678   2.11307   0.88127 
 H                    -4.55609   1.96142  -0.93064 
 H                    -5.66974   2.25043   0.06534 
 
                          Input orientation:                          
 ---------------------------------------------------------------------
 Center     Atomic      Atomic             Coordinates (Angstroms)
 Number     Number       Type             X           Y           Z
 ---------------------------------------------------------------------
      1          6           0       -2.077494   -0.637006   -0.014195
      2          1           0       -1.267909   -1.330697    0.076715
      3          1           0       -1.785190   -0.233634    0.932774
      4          1           0       -1.662202   -0.191086   -0.893733
      5          1           0       -2.750609   -1.449934   -0.190159
      6          6           0       -4.819405    1.601363    0.041952
      7          1           0       -5.472113    0.770474    0.210759
      8          1           0       -4.396779    2.113065    0.881266
      9          1           0       -4.556092    1.961418   -0.930636
     10          1           0       -5.669738    2.250429    0.065338
 ---------------------------------------------------------------------
                    Distance matrix (angstroms):
                    1          2          3          4          5
     1  C    0.000000
     2  H    1.070000   0.000000
     3  H    1.070000   1.484576   0.000000
     4  H    1.070000   1.547886   1.831137   0.000000
     5  H    1.070000   1.511237   1.916350   1.806750   0.000000
     6  C    3.539989   4.605574   3.656124   3.749175   3.693806
     7  H    3.681717   4.701937   3.888822   4.081656   3.535184
     8  H    3.707266   4.721930   3.511417   3.992198   4.068512
     9  H    3.706091   4.760769   3.996054   3.606831   3.930063
    10  H    4.609536   5.674565   4.691773   4.789693   4.720093
                    6          7          8          9         10
     6  C    0.000000
     7  H    1.070000   0.000000
     8  H    1.070000   1.846205   0.000000
     9  H    1.070000   1.886856   1.825203   0.000000
    10  H    1.070000   1.500157   1.518233   1.521742   0.000000
 Stoichiometry    C2H8
 Framework group  C1[X(C2H8)]
 Deg. of freedom    24
 Full point group                 C1      NOp   1
 Largest Abelian subgroup         C1      NOp   1
 Largest concise Abelian subgroup C1      NOp   1
                         Standard orientation:                         
 ---------------------------------------------------------------------
 Center     Atomic      Atomic             Coordinates (Angstroms)
 Number     Number       Type             X           Y           Z
 ---------------------------------------------------------------------
      1          6           0        1.770015    0.002448   -0.000401
      2          1           0        2.834182   -0.022841   -0.109070
      3          1           0        1.725701   -0.863136   -0.627858
      4          1           0        1.824424   -0.152586    1.056909
      5          1           0        1.765444    1.026401   -0.310885
      6          6           0       -1.769973    0.003176    0.002225
      7          1           0       -1.753109    0.874886   -0.618048
      8          1           0       -1.780031   -0.963949   -0.455453
      9          1           0       -1.777463    0.035622    1.071706
     10          1           0       -2.839393    0.031859   -0.018243
 ---------------------------------------------------------------------
 Rotational constants (GHZ):     72.9120716      4.4422610      4.4359263
 Standard basis: 3-21G (6D, 7F)
 There are    34 symmetry adapted cartesian basis functions of A   symmetry.
 There are    34 symmetry adapted basis functions of A   symmetry.
    34 basis functions,    54 primitive gaussians,    34 cartesian basis functions
    10 alpha electrons       10 beta electrons
       nuclear repulsion energy        41.4683475937 Hartrees.
 NAtoms=   10 NActive=   10 NUniq=   10 SFac= 1.00D+00 NAtFMM=   60 NAOKFM=F Big=F
 Integral buffers will be    262144 words long.
 Raffenetti 2 integral format.
 Two-electron integral symmetry is turned on.
 One-electron integrals computed using PRISM.
 NBasis=    34 RedAO= T EigKep=  2.84D-02  NBF=    34
 NBsUse=    34 1.00D-06 EigRej= -1.00D+00 NBFU=    34
 ExpMin= 1.83D-01 ExpMax= 1.72D+02 ExpMxC= 1.72D+02 IAcc=1 IRadAn=         1 AccDes= 0.00D+00
 Harris functional with IExCor=  402 and IRadAn=       1 diagonalized for initial guess.
 HarFok:  IExCor=  402 AccDes= 0.00D+00 IRadAn=         1 IDoV= 1 UseB2=F ITyADJ=14
 ICtDFT=  3500011 ScaDFX=  1.000000  1.000000  1.000000  1.000000
 FoFCou: FMM=F IPFlag=           0 FMFlag=      100000 FMFlg1=           0
         NFxFlg=           0 DoJE=T BraDBF=F KetDBF=T FulRan=T
         wScrn=  0.000000 ICntrl=     500 IOpCl=  0 I1Cent=   200000004 NGrid=           0
         NMat0=    1 NMatS0=      1 NMatT0=    0 NMatD0=    1 NMtDS0=    0 NMtDT0=    0
 Petite list used in FoFCou.
 Keep R1 ints in memory in canonical form, NReq=1056238.
 Requested convergence on RMS density matrix=1.00D-08 within 128 cycles.
 Requested convergence on MAX density matrix=1.00D-06.
 Requested convergence on             energy=1.00D-06.
 No special actions if energy rises.
 Integral accuracy reduced to 1.0D-05 until final iterations.
 Initial convergence to 1.0D-05 achieved.  Increase integral accuracy.
 SCF Done:  E(RB3LYP) =  -80.5137242900     A.U. after   10 cycles
            NFock= 10  Conv=0.22D-08     -V/T= 2.0060

 **********************************************************************

            Population analysis using the SCF density.

 **********************************************************************

 Orbital symmetries:
       Occupied  (A) (A) (A) (A) (A) (A) (A) (A) (A) (A)
       Virtual   (A) (A) (A) (A) (A) (A) (A) (A) (A) (A) (A) (A)
                 (A) (A) (A) (A) (A) (A) (A) (A) (A) (A) (A) (A)
 The electronic state is 1-A.
 Alpha  occ. eigenvalues --  -10.08715 -10.08710  -0.71281  -0.71096  -0.41906
 Alpha  occ. eigenvalues --   -0.41406  -0.40253  -0.39819  -0.33427  -0.31781
 Alpha virt. eigenvalues --    0.13259   0.14565   0.15096   0.19350   0.20469
 Alpha virt. eigenvalues --    0.20899   0.21803   0.22532   0.60825   0.69616
 Alpha virt. eigenvalues --    0.70752   0.74228   0.75494   0.80747   0.98310
 Alpha virt. eigenvalues --    1.05137   1.07597   1.08233   1.09805   1.10676
 Alpha virt. eigenvalues --    1.16526   1.16746   1.75428   1.76363
          Condensed to atoms (all electrons):
               1          2          3          4          5          6
     1  C    5.340358   0.301713   0.382765   0.378683   0.382130   0.001807
     2  H    0.301713   0.681618  -0.062359  -0.051154  -0.057973   0.000030
     3  H    0.382765  -0.062359   0.510889  -0.019703  -0.011464   0.000161
     4  H    0.378683  -0.051154  -0.019703   0.514859  -0.022370   0.000112
     5  H    0.382130  -0.057973  -0.011464  -0.022370   0.508837   0.000135
     6  C    0.001807   0.000030   0.000161   0.000112   0.000135   5.338965
     7  H    0.000144   0.000004  -0.000001  -0.000001   0.000056   0.382594
     8  H    0.000127   0.000003   0.000067   0.000001  -0.000001   0.379380
     9  H    0.000135   0.000003  -0.000003   0.000043   0.000000   0.382059
    10  H    0.000031  -0.000001   0.000005   0.000002   0.000004   0.301271
               7          8          9         10
     1  C    0.000144   0.000127   0.000135   0.000031
     2  H    0.000004   0.000003   0.000003  -0.000001
     3  H   -0.000001   0.000067  -0.000003   0.000005
     4  H   -0.000001   0.000001   0.000043   0.000002
     5  H    0.000056  -0.000001   0.000000   0.000004
     6  C    0.382594   0.379380   0.382059   0.301271
     7  H    0.509971  -0.018149  -0.014304  -0.059621
     8  H   -0.018149   0.516102  -0.020402  -0.056033
     9  H   -0.014304  -0.020402   0.508512  -0.056042
    10  H   -0.059621  -0.056033  -0.056042   0.682123
 Mulliken charges:
               1
     1  C   -0.787893
     2  H    0.188115
     3  H    0.199643
     4  H    0.199528
     5  H    0.200645
     6  C   -0.786513
     7  H    0.199308
     8  H    0.198906
     9  H    0.199999
    10  H    0.188262
 Sum of Mulliken charges =   0.00000
 Mulliken charges with hydrogens summed into heavy atoms:
               1
     1  C    0.000039
     6  C   -0.000039
 Electronic spatial extent (au):  <R**2>=            316.6072
 Charge=              0.0000 electrons
 Dipole moment (field-independent basis, Debye):
    X=             -0.0005    Y=             -0.0136    Z=             -0.0449  Tot=              0.0469
 Quadrupole moment (field-independent basis, Debye-Ang):
   XX=            -12.9742   YY=            -15.6469   ZZ=            -15.8934
   XY=             -0.0381   XZ=             -0.0569   YZ=             -0.0020
 Traceless Quadrupole moment (field-independent basis, Debye-Ang):
   XX=              1.8640   YY=             -0.8087   ZZ=             -1.0553
   XY=             -0.0381   XZ=             -0.0569   YZ=             -0.0020
 Octapole moment (field-independent basis, Debye-Ang**2):
  XXX=             -0.0646  YYY=              0.1767  ZZZ=              1.4351  XYY=              0.3571
  XXY=             -0.0163  XXZ=             -0.3292  XZZ=             -0.3317  YZZ=             -0.1998
  YYZ=             -1.4413  XYZ=              0.3533
 Hexadecapole moment (field-independent basis, Debye-Ang**3):
 XXXX=           -367.8063 YYYY=            -28.4673 ZZZZ=            -28.3054 XXXY=             -0.2646
 XXXZ=             -0.4200 YYYX=              0.9920 YYYZ=              0.0665 ZZZX=             -0.0960
 ZZZY=             -0.0878 XXYY=            -62.6935 XXZZ=            -63.3262 YYZZ=             -9.5700
 XXYZ=             -0.0407 YYXZ=              0.1670 ZZXY=             -0.9449
 N-N= 4.146834759370D+01 E-N=-2.681832704500D+02  KE= 8.003300770485D+01
 1|1|UNPC-INANI_LAP|SP|RB3LYP|3-21G|C2H8|EMMAN|29-Mar-2026|0||# b3lyp/3
 -21g geom=connectivity||Title Card Required - Distancia +2.00A - Paso 
 8||0,1|C,0,-2.07749416,-0.63700562,-0.01419458|H,0,-1.26790947,-1.3306
 9728,0.07671479|H,0,-1.78518986,-0.23363379,0.93277394|H,0,-1.66220218
 ,-0.19108573,-0.89373311|H,0,-2.75060946,-1.44993395,-0.19015855|C,0,-
 4.81940527,1.601363,0.04195162|H,0,-5.47211278,0.77047377,0.21075916|H
 ,0,-4.39677887,2.11306515,0.88126554|H,0,-4.55609158,1.96141778,-0.930
 63588|H,0,-5.6697381,2.25042939,0.06533774||Version=IA32W-G09RevD.01|S
 tate=1-A|HF=-80.5137243|RMSD=2.218e-009|Dipole=-0.0018398,-0.0024305,0
 .0182085|Quadrupole=0.5857994,0.1649355,-0.7507349,-0.9894462,0.057045
 ,0.0462416|PG=C01 [X(C2H8)]||@


 IF YOU BELIEVE CERTAIN WORDS, YOU BELIEVE THEIR HIDDEN ARGUMENTS.
 WHEN YOU BELIEVE SOMETHING IS RIGHT OR WRONG, TRUE OR FALSE, 
 YOU BELIEVE THE ASSUMPTIONS IN THE WORDS WHICH EXPRESS THE ARGUMENTS.
 SUCH ASSUMPTIONS ARE OFTEN FULL OF HOLES, BUT REMAIN MOST PRECIOUS 
 TO THE CONVINCED.

                 -- THE OPEN-ENDED PROOF FROM THE PANOPLIA PROPHETICA
                    CHILDREN OF DUNE BY FRANK HERBERT
 Job cpu time:       0 days  0 hours  0 minutes  3.0 seconds.
 File lengths (MBytes):  RWF=      5 Int=      0 D2E=      0 Chk=      1 Scr=      1
 Normal termination of Gaussian 09 at Sun Mar 29 02:37:13 2026.
