 Entering Link 1 = C:\G09W\l1.exe PID=     14764.
  
 Copyright (c) 1988,1990,1992,1993,1995,1998,2003,2009,2013,
            Gaussian, Inc.  All Rights Reserved.
  
 This is part of the Gaussian(R) 09 program.  It is based on
 the Gaussian(R) 03 system (copyright 2003, Gaussian, Inc.),
 the Gaussian(R) 98 system (copyright 1998, Gaussian, Inc.),
 the Gaussian(R) 94 system (copyright 1995, Gaussian, Inc.),
 the Gaussian 92(TM) system (copyright 1992, Gaussian, Inc.),
 the Gaussian 90(TM) system (copyright 1990, Gaussian, Inc.),
 the Gaussian 88(TM) system (copyright 1988, Gaussian, Inc.),
 the Gaussian 86(TM) system (copyright 1986, Carnegie Mellon
 University), and the Gaussian 82(TM) system (copyright 1983,
 Carnegie Mellon University). Gaussian is a federally registered
 trademark of Gaussian, Inc.
  
 This software contains proprietary and confidential information,
 including trade secrets, belonging to Gaussian, Inc.
  
 This software is provided under written license and may be
 used, copied, transmitted, or stored only in accord with that
 written license.
  
 The following legend is applicable only to US Government
 contracts under FAR:
  
                    RESTRICTED RIGHTS LEGEND
  
 Use, reproduction and disclosure by the US Government is
 subject to restrictions as set forth in subparagraphs (a)
 and (c) of the Commercial Computer Software - Restricted
 Rights clause in FAR 52.227-19.
  
 Gaussian, Inc.
 340 Quinnipiac St., Bldg. 40, Wallingford CT 06492
  
  
 ---------------------------------------------------------------
 Warning -- This program may not be used in any manner that
 competes with the business of Gaussian, Inc. or will provide
 assistance to any competitor of Gaussian, Inc.  The licensee
 of this program is prohibited from giving any competitor of
 Gaussian, Inc. access to this program.  By using this program,
 the user acknowledges that Gaussian, Inc. is engaged in the
 business of creating and licensing software in the field of
 computational chemistry and represents and warrants to the
 licensee that it is not a competitor of Gaussian, Inc. and that
 it will not use this program in any manner prohibited above.
 ---------------------------------------------------------------
  

 Cite this work as:
 Gaussian 09, Revision D.01,
 M. J. Frisch, G. W. Trucks, H. B. Schlegel, G. E. Scuseria, 
 M. A. Robb, J. R. Cheeseman, G. Scalmani, V. Barone, B. Mennucci, 
 G. A. Petersson, H. Nakatsuji, M. Caricato, X. Li, H. P. Hratchian, 
 A. F. Izmaylov, J. Bloino, G. Zheng, J. L. Sonnenberg, M. Hada, 
 M. Ehara, K. Toyota, R. Fukuda, J. Hasegawa, M. Ishida, T. Nakajima, 
 Y. Honda, O. Kitao, H. Nakai, T. Vreven, J. A. Montgomery, Jr., 
 J. E. Peralta, F. Ogliaro, M. Bearpark, J. J. Heyd, E. Brothers, 
 K. N. Kudin, V. N. Staroverov, T. Keith, R. Kobayashi, J. Normand, 
 K. Raghavachari, A. Rendell, J. C. Burant, S. S. Iyengar, J. Tomasi, 
 M. Cossi, N. Rega, J. M. Millam, M. Klene, J. E. Knox, J. B. Cross, 
 V. Bakken, C. Adamo, J. Jaramillo, R. Gomperts, R. E. Stratmann, 
 O. Yazyev, A. J. Austin, R. Cammi, C. Pomelli, J. W. Ochterski, 
 R. L. Martin, K. Morokuma, V. G. Zakrzewski, G. A. Voth, 
 P. Salvador, J. J. Dannenberg, S. Dapprich, A. D. Daniels, 
 O. Farkas, J. B. Foresman, J. V. Ortiz, J. Cioslowski, 
 and D. J. Fox, Gaussian, Inc., Wallingford CT, 2013.
 
 ******************************************
 Gaussian 09:  IA32W-G09RevD.01 24-Apr-2013
                29-Mar-2026 
 ******************************************
 %chk=C:\Users\emman\Escritorio\quimica-enlaces\molecula\H2O.chk
 -------------------------------
 # b3lyp/3-21g geom=connectivity
 -------------------------------
 1/38=1,57=2/1;
 2/12=2,17=6,18=5,40=1/2;
 3/5=5,11=2,16=1,25=1,30=1,74=-5/1,2,3;
 4//1;
 5/5=2,38=5/2;
 6/7=2,8=2,9=2,10=2,28=1/1;
 99/5=1,9=1/99;
 -----------------------------------------------
 Title Card Required - Distancia +2.25A - Paso 9
 -----------------------------------------------
 Symbolic Z-matrix:
 Charge =  0 Multiplicity = 1
 C                    -2.07749  -0.63701  -0.01419 
 H                    -1.26791  -1.3307    0.07671 
 H                    -1.78519  -0.23363   0.93277 
 H                    -1.6622   -0.19109  -0.89373 
 H                    -2.75061  -1.44993  -0.19016 
 C                    -5.01309   1.75937   0.04645 
 H                    -5.6658    0.92848   0.21526 
 H                    -4.59046   2.27107   0.88577 
 H                    -4.74978   2.11942  -0.92613 
 H                    -5.86342   2.40843   0.06984 
 
                          Input orientation:                          
 ---------------------------------------------------------------------
 Center     Atomic      Atomic             Coordinates (Angstroms)
 Number     Number       Type             X           Y           Z
 ---------------------------------------------------------------------
      1          6           0       -2.077494   -0.637006   -0.014195
      2          1           0       -1.267909   -1.330697    0.076715
      3          1           0       -1.785190   -0.233634    0.932774
      4          1           0       -1.662202   -0.191086   -0.893733
      5          1           0       -2.750609   -1.449934   -0.190159
      6          6           0       -5.013091    1.759368    0.046454
      7          1           0       -5.665799    0.928479    0.215261
      8          1           0       -4.590465    2.271070    0.885768
      9          1           0       -4.749777    2.119423   -0.926134
     10          1           0       -5.863424    2.408434    0.069840
 ---------------------------------------------------------------------
                    Distance matrix (angstroms):
                    1          2          3          4          5
     1  C    0.000000
     2  H    1.070000   0.000000
     3  H    1.070000   1.484576   0.000000
     4  H    1.070000   1.547886   1.831137   0.000000
     5  H    1.070000   1.511237   1.916350   1.806750   0.000000
     6  C    3.789989   4.855492   3.895763   3.989571   3.933755
     7  H    3.921648   4.946160   4.113934   4.302566   3.784117
     8  H    3.947386   4.966555   3.761026   4.219426   4.288188
     9  H    3.945963   5.003243   4.216775   3.856504   4.156758
    10  H    4.859530   5.924517   4.935299   5.033512   4.964294
                    6          7          8          9         10
     6  C    0.000000
     7  H    1.070000   0.000000
     8  H    1.070000   1.846205   0.000000
     9  H    1.070000   1.886856   1.825203   0.000000
    10  H    1.070000   1.500157   1.518233   1.521742   0.000000
 Stoichiometry    C2H8
 Framework group  C1[X(C2H8)]
 Deg. of freedom    24
 Full point group                 C1      NOp   1
 Largest Abelian subgroup         C1      NOp   1
 Largest concise Abelian subgroup C1      NOp   1
                         Standard orientation:                         
 ---------------------------------------------------------------------
 Center     Atomic      Atomic             Coordinates (Angstroms)
 Number     Number       Type             X           Y           Z
 ---------------------------------------------------------------------
      1          6           0        1.895015    0.002435   -0.000435
      2          1           0        2.959169   -0.022894   -0.109216
      3          1           0        1.850603   -0.863153   -0.627879
      4          1           0        1.949530   -0.152592    1.056870
      5          1           0        1.890448    1.026385   -0.310927
      6          6           0       -1.894973    0.003189    0.002259
      7          1           0       -1.878144    0.874893   -0.618023
      8          1           0       -1.905114   -0.963939   -0.455409
      9          1           0       -1.902348    0.035645    1.071741
     10          1           0       -2.964394    0.031910   -0.018096
 ---------------------------------------------------------------------
 Rotational constants (GHZ):     72.9120144      3.9178515      3.9129234
 Standard basis: 3-21G (6D, 7F)
 There are    34 symmetry adapted cartesian basis functions of A   symmetry.
 There are    34 symmetry adapted basis functions of A   symmetry.
    34 basis functions,    54 primitive gaussians,    34 cartesian basis functions
    10 alpha electrons       10 beta electrons
       nuclear repulsion energy        40.6202755088 Hartrees.
 NAtoms=   10 NActive=   10 NUniq=   10 SFac= 1.00D+00 NAtFMM=   60 NAOKFM=F Big=F
 Integral buffers will be    262144 words long.
 Raffenetti 2 integral format.
 Two-electron integral symmetry is turned on.
 One-electron integrals computed using PRISM.
 NBasis=    34 RedAO= T EigKep=  2.86D-02  NBF=    34
 NBsUse=    34 1.00D-06 EigRej= -1.00D+00 NBFU=    34
 ExpMin= 1.83D-01 ExpMax= 1.72D+02 ExpMxC= 1.72D+02 IAcc=1 IRadAn=         1 AccDes= 0.00D+00
 Harris functional with IExCor=  402 and IRadAn=       1 diagonalized for initial guess.
 HarFok:  IExCor=  402 AccDes= 0.00D+00 IRadAn=         1 IDoV= 1 UseB2=F ITyADJ=14
 ICtDFT=  3500011 ScaDFX=  1.000000  1.000000  1.000000  1.000000
 FoFCou: FMM=F IPFlag=           0 FMFlag=      100000 FMFlg1=           0
         NFxFlg=           0 DoJE=T BraDBF=F KetDBF=T FulRan=T
         wScrn=  0.000000 ICntrl=     500 IOpCl=  0 I1Cent=   200000004 NGrid=           0
         NMat0=    1 NMatS0=      1 NMatT0=    0 NMatD0=    1 NMtDS0=    0 NMtDT0=    0
 Petite list used in FoFCou.
 Keep R1 ints in memory in canonical form, NReq=1056238.
 Requested convergence on RMS density matrix=1.00D-08 within 128 cycles.
 Requested convergence on MAX density matrix=1.00D-06.
 Requested convergence on             energy=1.00D-06.
 No special actions if energy rises.
 Integral accuracy reduced to 1.0D-05 until final iterations.
 Initial convergence to 1.0D-05 achieved.  Increase integral accuracy.
 SCF Done:  E(RB3LYP) =  -80.5140882842     A.U. after   10 cycles
            NFock= 10  Conv=0.59D-08     -V/T= 2.0060

 **********************************************************************

            Population analysis using the SCF density.

 **********************************************************************

 Orbital symmetries:
       Occupied  (A) (A) (A) (A) (A) (A) (A) (A) (A) (A)
       Virtual   (A) (A) (A) (A) (A) (A) (A) (A) (A) (A) (A) (A)
                 (A) (A) (A) (A) (A) (A) (A) (A) (A) (A) (A) (A)
 The electronic state is 1-A.
 Alpha  occ. eigenvalues --  -10.08782 -10.08779  -0.71314  -0.71209  -0.41968
 Alpha  occ. eigenvalues --   -0.41475  -0.40327  -0.39899  -0.33250  -0.32149
 Alpha virt. eigenvalues --    0.13423   0.14277   0.15389   0.18814   0.20567
 Alpha virt. eigenvalues --    0.20990   0.21618   0.22239   0.62515   0.70122
 Alpha virt. eigenvalues --    0.71093   0.73631   0.74849   0.76978   0.98227
 Alpha virt. eigenvalues --    1.03402   1.07794   1.08396   1.09465   1.10219
 Alpha virt. eigenvalues --    1.16479   1.16621   1.75577   1.75931
          Condensed to atoms (all electrons):
               1          2          3          4          5          6
     1  C    5.343638   0.304102   0.382334   0.378421   0.381740   0.001238
     2  H    0.304102   0.675889  -0.061833  -0.050826  -0.057500   0.000010
     3  H    0.382334  -0.061833   0.510337  -0.019689  -0.011469   0.000097
     4  H    0.378421  -0.050826  -0.019689   0.514208  -0.022350   0.000059
     5  H    0.381740  -0.057500  -0.011469  -0.022350   0.508238   0.000079
     6  C    0.001238   0.000010   0.000097   0.000059   0.000079   5.342233
     7  H    0.000085   0.000002   0.000000   0.000000   0.000025   0.382190
     8  H    0.000072   0.000001   0.000029   0.000000   0.000000   0.379045
     9  H    0.000076   0.000001  -0.000001   0.000018   0.000000   0.381708
    10  H    0.000010   0.000000   0.000002   0.000001   0.000001   0.303681
               7          8          9         10
     1  C    0.000085   0.000072   0.000076   0.000010
     2  H    0.000002   0.000001   0.000001   0.000000
     3  H    0.000000   0.000029  -0.000001   0.000002
     4  H    0.000000   0.000000   0.000018   0.000001
     5  H    0.000025   0.000000   0.000000   0.000001
     6  C    0.382190   0.379045   0.381708   0.303681
     7  H    0.509398  -0.018148  -0.014296  -0.059134
     8  H   -0.018148   0.515485  -0.020387  -0.055627
     9  H   -0.014296  -0.020387   0.507894  -0.055605
    10  H   -0.059134  -0.055627  -0.055605   0.676356
 Mulliken charges:
               1
     1  C   -0.791716
     2  H    0.190155
     3  H    0.200191
     4  H    0.200158
     5  H    0.201236
     6  C   -0.790340
     7  H    0.199879
     8  H    0.199529
     9  H    0.200592
    10  H    0.190316
 Sum of Mulliken charges =   0.00000
 Mulliken charges with hydrogens summed into heavy atoms:
               1
     1  C    0.000024
     6  C   -0.000024
 Electronic spatial extent (au):  <R**2>=            350.8616
 Charge=              0.0000 electrons
 Dipole moment (field-independent basis, Debye):
    X=             -0.0008    Y=             -0.0137    Z=             -0.0459  Tot=              0.0479
 Quadrupole moment (field-independent basis, Debye-Ang):
   XX=            -12.4800   YY=            -15.6411   ZZ=            -15.8881
   XY=             -0.0412   XZ=             -0.0614   YZ=             -0.0019
 Traceless Quadrupole moment (field-independent basis, Debye-Ang):
   XX=              2.1897   YY=             -0.9713   ZZ=             -1.2184
   XY=             -0.0412   XZ=             -0.0614   YZ=             -0.0019
 Octapole moment (field-independent basis, Debye-Ang**2):
  XXX=             -0.0742  YYY=              0.1769  ZZZ=              1.4395  XYY=              0.3818
  XXY=             -0.0197  XXZ=             -0.3727  XZZ=             -0.3549  YZZ=             -0.2005
  YYZ=             -1.4458  XYZ=              0.3784
 Hexadecapole moment (field-independent basis, Debye-Ang**3):
 XXXX=           -410.7288 YYYY=            -28.4506 ZZZZ=            -28.2892 XXXY=             -0.3169
 XXXZ=             -0.5045 YYYX=              1.0592 YYYZ=              0.0667 ZZZX=             -0.1062
 ZZZY=             -0.0880 XXYY=            -70.0423 XXZZ=            -70.7843 YYZZ=             -9.5648
 XXYZ=             -0.0441 YYXZ=              0.1776 ZZXY=             -1.0118
 N-N= 4.062027550876D+01 E-N=-2.664715155241D+02  KE= 8.003190899909D+01
 1|1|UNPC-INANI_LAP|SP|RB3LYP|3-21G|C2H8|EMMAN|29-Mar-2026|0||# b3lyp/3
 -21g geom=connectivity||Title Card Required - Distancia +2.25A - Paso 
 9||0,1|C,0,-2.07749416,-0.63700562,-0.01419458|H,0,-1.26790947,-1.3306
 9728,0.07671479|H,0,-1.78518986,-0.23363379,0.93277394|H,0,-1.66220218
 ,-0.19108573,-0.89373311|H,0,-2.75060946,-1.44993395,-0.19015855|C,0,-
 5.01309115,1.75936779,0.04645363|H,0,-5.66579866,0.92847856,0.21526117
 |H,0,-4.59046475,2.27106994,0.88576755|H,0,-4.74977746,2.11942257,-0.9
 2613387|H,0,-5.86342398,2.40843418,0.06983975||Version=IA32W-G09RevD.0
 1|State=1-A|HF=-80.5140883|RMSD=5.861e-009|Dipole=-0.0020157,-0.002455
 ,0.0185881|Quadrupole=0.6833922,0.1885356,-0.8719278,-1.1672299,0.0553
 442,0.0477995|PG=C01 [X(C2H8)]||@


 IF YOU BELIEVE CERTAIN WORDS, YOU BELIEVE THEIR HIDDEN ARGUMENTS.
 WHEN YOU BELIEVE SOMETHING IS RIGHT OR WRONG, TRUE OR FALSE, 
 YOU BELIEVE THE ASSUMPTIONS IN THE WORDS WHICH EXPRESS THE ARGUMENTS.
 SUCH ASSUMPTIONS ARE OFTEN FULL OF HOLES, BUT REMAIN MOST PRECIOUS 
 TO THE CONVINCED.

                 -- THE OPEN-ENDED PROOF FROM THE PANOPLIA PROPHETICA
                    CHILDREN OF DUNE BY FRANK HERBERT
 Job cpu time:       0 days  0 hours  0 minutes  3.0 seconds.
 File lengths (MBytes):  RWF=      5 Int=      0 D2E=      0 Chk=      1 Scr=      1
 Normal termination of Gaussian 09 at Sun Mar 29 02:37:16 2026.
