 Entering Link 1 = C:\G09W\l1.exe PID=     15828.
  
 Copyright (c) 1988,1990,1992,1993,1995,1998,2003,2009,2013,
            Gaussian, Inc.  All Rights Reserved.
  
 This is part of the Gaussian(R) 09 program.  It is based on
 the Gaussian(R) 03 system (copyright 2003, Gaussian, Inc.),
 the Gaussian(R) 98 system (copyright 1998, Gaussian, Inc.),
 the Gaussian(R) 94 system (copyright 1995, Gaussian, Inc.),
 the Gaussian 92(TM) system (copyright 1992, Gaussian, Inc.),
 the Gaussian 90(TM) system (copyright 1990, Gaussian, Inc.),
 the Gaussian 88(TM) system (copyright 1988, Gaussian, Inc.),
 the Gaussian 86(TM) system (copyright 1986, Carnegie Mellon
 University), and the Gaussian 82(TM) system (copyright 1983,
 Carnegie Mellon University). Gaussian is a federally registered
 trademark of Gaussian, Inc.
  
 This software contains proprietary and confidential information,
 including trade secrets, belonging to Gaussian, Inc.
  
 This software is provided under written license and may be
 used, copied, transmitted, or stored only in accord with that
 written license.
  
 The following legend is applicable only to US Government
 contracts under FAR:
  
                    RESTRICTED RIGHTS LEGEND
  
 Use, reproduction and disclosure by the US Government is
 subject to restrictions as set forth in subparagraphs (a)
 and (c) of the Commercial Computer Software - Restricted
 Rights clause in FAR 52.227-19.
  
 Gaussian, Inc.
 340 Quinnipiac St., Bldg. 40, Wallingford CT 06492
  
  
 ---------------------------------------------------------------
 Warning -- This program may not be used in any manner that
 competes with the business of Gaussian, Inc. or will provide
 assistance to any competitor of Gaussian, Inc.  The licensee
 of this program is prohibited from giving any competitor of
 Gaussian, Inc. access to this program.  By using this program,
 the user acknowledges that Gaussian, Inc. is engaged in the
 business of creating and licensing software in the field of
 computational chemistry and represents and warrants to the
 licensee that it is not a competitor of Gaussian, Inc. and that
 it will not use this program in any manner prohibited above.
 ---------------------------------------------------------------
  

 Cite this work as:
 Gaussian 09, Revision D.01,
 M. J. Frisch, G. W. Trucks, H. B. Schlegel, G. E. Scuseria, 
 M. A. Robb, J. R. Cheeseman, G. Scalmani, V. Barone, B. Mennucci, 
 G. A. Petersson, H. Nakatsuji, M. Caricato, X. Li, H. P. Hratchian, 
 A. F. Izmaylov, J. Bloino, G. Zheng, J. L. Sonnenberg, M. Hada, 
 M. Ehara, K. Toyota, R. Fukuda, J. Hasegawa, M. Ishida, T. Nakajima, 
 Y. Honda, O. Kitao, H. Nakai, T. Vreven, J. A. Montgomery, Jr., 
 J. E. Peralta, F. Ogliaro, M. Bearpark, J. J. Heyd, E. Brothers, 
 K. N. Kudin, V. N. Staroverov, T. Keith, R. Kobayashi, J. Normand, 
 K. Raghavachari, A. Rendell, J. C. Burant, S. S. Iyengar, J. Tomasi, 
 M. Cossi, N. Rega, J. M. Millam, M. Klene, J. E. Knox, J. B. Cross, 
 V. Bakken, C. Adamo, J. Jaramillo, R. Gomperts, R. E. Stratmann, 
 O. Yazyev, A. J. Austin, R. Cammi, C. Pomelli, J. W. Ochterski, 
 R. L. Martin, K. Morokuma, V. G. Zakrzewski, G. A. Voth, 
 P. Salvador, J. J. Dannenberg, S. Dapprich, A. D. Daniels, 
 O. Farkas, J. B. Foresman, J. V. Ortiz, J. Cioslowski, 
 and D. J. Fox, Gaussian, Inc., Wallingford CT, 2013.
 
 ******************************************
 Gaussian 09:  IA32W-G09RevD.01 24-Apr-2013
                29-Mar-2026 
 ******************************************
 %chk=C:\Users\emman\Escritorio\quimica-enlaces\molecula\H2O.chk
 -------------------------------
 # b3lyp/3-21g geom=connectivity
 -------------------------------
 1/38=1,57=2/1;
 2/12=2,17=6,18=5,40=1/2;
 3/5=5,11=2,16=1,25=1,30=1,74=-5/1,2,3;
 4//1;
 5/5=2,38=5/2;
 6/7=2,8=2,9=2,10=2,28=1/1;
 99/5=1,9=1/99;
 ------------------------------------------------
 Title Card Required - Distancia +5.50A - Paso 22
 ------------------------------------------------
 Symbolic Z-matrix:
 Charge =  0 Multiplicity = 1
 C                    -2.07749  -0.63701  -0.01419 
 H                    -1.26791  -1.3307    0.07671 
 H                    -1.78519  -0.23363   0.93277 
 H                    -1.6622   -0.19109  -0.89373 
 H                    -2.75061  -1.44993  -0.19016 
 C                    -7.53101   3.81343   0.10498 
 H                    -8.18372   2.98254   0.27379 
 H                    -7.10838   4.32513   0.94429 
 H                    -7.26769   4.17348  -0.86761 
 H                    -8.38134   4.4625    0.12837 
 
                          Input orientation:                          
 ---------------------------------------------------------------------
 Center     Atomic      Atomic             Coordinates (Angstroms)
 Number     Number       Type             X           Y           Z
 ---------------------------------------------------------------------
      1          6           0       -2.077494   -0.637006   -0.014195
      2          1           0       -1.267909   -1.330697    0.076715
      3          1           0       -1.785190   -0.233634    0.932774
      4          1           0       -1.662202   -0.191086   -0.893733
      5          1           0       -2.750609   -1.449934   -0.190159
      6          6           0       -7.531008    3.813430    0.104980
      7          1           0       -8.183715    2.982541    0.273787
      8          1           0       -7.108381    4.325132    0.944294
      9          1           0       -7.267694    4.173485   -0.867608
     10          1           0       -8.381340    4.462496    0.128366
 ---------------------------------------------------------------------
                    Distance matrix (angstroms):
                    1          2          3          4          5
     1  C    0.000000
     2  H    1.070000   0.000000
     3  H    1.070000   1.484576   0.000000
     4  H    1.070000   1.547886   1.831137   0.000000
     5  H    1.070000   1.511237   1.916350   1.806750   0.000000
     6  C    7.039985   8.104890   7.076609   7.174709   7.116341
     7  H    7.104223   8.152989   7.191604   7.346097   7.027141
     8  H    7.131012   8.176320   7.008484   7.309954   7.323151
     9  H    7.127924   8.196657   7.260986   7.104343   7.244710
    10  H    8.109483   9.174130   8.136947   8.236949   8.170889
                    6          7          8          9         10
     6  C    0.000000
     7  H    1.070000   0.000000
     8  H    1.070000   1.846205   0.000000
     9  H    1.070000   1.886856   1.825203   0.000000
    10  H    1.070000   1.500157   1.518233   1.521742   0.000000
 Stoichiometry    C2H8
 Framework group  C1[X(C2H8)]
 Deg. of freedom    24
 Full point group                 C1      NOp   1
 Largest Abelian subgroup         C1      NOp   1
 Largest concise Abelian subgroup C1      NOp   1
                         Standard orientation:                         
 ---------------------------------------------------------------------
 Center     Atomic      Atomic             Coordinates (Angstroms)
 Number     Number       Type             X           Y           Z
 ---------------------------------------------------------------------
      1          6           0        3.520014    0.002347   -0.000659
      2          1           0        4.584094   -0.023211   -0.110110
      3          1           0        3.475025   -0.863266   -0.628026
      4          1           0        3.575164   -0.152632    1.056621
      5          1           0        3.515467    1.026281   -0.311205
      6          6           0       -3.519970    0.003277    0.002482
      7          1           0       -3.503349    0.874942   -0.617859
      8          1           0       -3.530604   -0.963875   -0.455126
      9          1           0       -3.526663    0.035793    1.071966
     10          1           0       -4.589398    0.032222   -0.017200
 ---------------------------------------------------------------------
 Rotational constants (GHZ):     72.9116556      1.2086570      1.2081877
 Standard basis: 3-21G (6D, 7F)
 There are    34 symmetry adapted cartesian basis functions of A   symmetry.
 There are    34 symmetry adapted basis functions of A   symmetry.
    34 basis functions,    54 primitive gaussians,    34 cartesian basis functions
    10 alpha electrons       10 beta electrons
       nuclear repulsion energy        34.8230213510 Hartrees.
 NAtoms=   10 NActive=   10 NUniq=   10 SFac= 1.00D+00 NAtFMM=   60 NAOKFM=F Big=F
 Integral buffers will be    262144 words long.
 Raffenetti 2 integral format.
 Two-electron integral symmetry is turned on.
 One-electron integrals computed using PRISM.
 NBasis=    34 RedAO= T EigKep=  2.90D-02  NBF=    34
 NBsUse=    34 1.00D-06 EigRej= -1.00D+00 NBFU=    34
 ExpMin= 1.83D-01 ExpMax= 1.72D+02 ExpMxC= 1.72D+02 IAcc=1 IRadAn=         1 AccDes= 0.00D+00
 Harris functional with IExCor=  402 and IRadAn=       1 diagonalized for initial guess.
 HarFok:  IExCor=  402 AccDes= 0.00D+00 IRadAn=         1 IDoV= 1 UseB2=F ITyADJ=14
 ICtDFT=  3500011 ScaDFX=  1.000000  1.000000  1.000000  1.000000
 FoFCou: FMM=F IPFlag=           0 FMFlag=      100000 FMFlg1=           0
         NFxFlg=           0 DoJE=T BraDBF=F KetDBF=T FulRan=T
         wScrn=  0.000000 ICntrl=     500 IOpCl=  0 I1Cent=   200000004 NGrid=           0
         NMat0=    1 NMatS0=      1 NMatT0=    0 NMatD0=    1 NMtDS0=    0 NMtDT0=    0
 Petite list used in FoFCou.
 Keep R1 ints in memory in canonical form, NReq=1056238.
 Requested convergence on RMS density matrix=1.00D-08 within 128 cycles.
 Requested convergence on MAX density matrix=1.00D-06.
 Requested convergence on             energy=1.00D-06.
 No special actions if energy rises.
 Integral accuracy reduced to 1.0D-05 until final iterations.
 Initial convergence to 1.0D-05 achieved.  Increase integral accuracy.
 SCF Done:  E(RB3LYP) =  -80.5148295279     A.U. after   10 cycles
            NFock= 10  Conv=0.14D-08     -V/T= 2.0060

 **********************************************************************

            Population analysis using the SCF density.

 **********************************************************************

 Orbital symmetries:
       Occupied  (A) (A) (A) (A) (A) (A) (A) (A) (A) (A)
       Virtual   (A) (A) (A) (A) (A) (A) (A) (A) (A) (A) (A) (A)
                 (A) (A) (A) (A) (A) (A) (A) (A) (A) (A) (A) (A)
 The electronic state is 1-A.
 Alpha  occ. eigenvalues --  -10.09172 -10.09172  -0.71679  -0.71677  -0.42394
 Alpha  occ. eigenvalues --   -0.41904  -0.40756  -0.40326  -0.33233  -0.33141
 Alpha virt. eigenvalues --    0.13436   0.13513   0.16645   0.16710   0.20396
 Alpha virt. eigenvalues --    0.20633   0.21276   0.21556   0.68369   0.68394
 Alpha virt. eigenvalues --    0.70211   0.70841   0.72846   0.73956   0.99430
 Alpha virt. eigenvalues --    0.99465   1.07759   1.08069   1.09009   1.09337
 Alpha virt. eigenvalues --    1.16115   1.16202   1.75201   1.75429
          Condensed to atoms (all electrons):
               1          2          3          4          5          6
     1  C    5.355082   0.309454   0.381217   0.377629   0.380698   0.000000
     2  H    0.309454   0.660472  -0.060321  -0.049729  -0.056102   0.000000
     3  H    0.381217  -0.060321   0.508279  -0.019712  -0.011560   0.000000
     4  H    0.377629  -0.049729  -0.019712   0.511720  -0.022343   0.000000
     5  H    0.380698  -0.056102  -0.011560  -0.022343   0.505982   0.000000
     6  C    0.000000   0.000000   0.000000   0.000000   0.000000   5.353695
     7  H    0.000000   0.000000   0.000000   0.000000   0.000000   0.381119
     8  H    0.000000   0.000000   0.000000   0.000000   0.000000   0.378101
     9  H    0.000000   0.000000   0.000000   0.000000   0.000000   0.380735
    10  H    0.000000   0.000000   0.000000   0.000000   0.000000   0.309119
               7          8          9         10
     1  C    0.000000   0.000000   0.000000   0.000000
     2  H    0.000000   0.000000   0.000000   0.000000
     3  H    0.000000   0.000000   0.000000   0.000000
     4  H    0.000000   0.000000   0.000000   0.000000
     5  H    0.000000   0.000000   0.000000   0.000000
     6  C    0.381119   0.378101   0.380735   0.309119
     7  H    0.507245  -0.018207  -0.014342  -0.057697
     8  H   -0.018207   0.513093  -0.020405  -0.054344
     9  H   -0.014342  -0.020405   0.505626  -0.054285
    10  H   -0.057697  -0.054344  -0.054285   0.660752
 Mulliken charges:
               1
     1  C   -0.804081
     2  H    0.196225
     3  H    0.202097
     4  H    0.202435
     5  H    0.203324
     6  C   -0.802769
     7  H    0.201882
     8  H    0.201761
     9  H    0.202671
    10  H    0.196456
 Sum of Mulliken charges =   0.00000
 Mulliken charges with hydrogens summed into heavy atoms:
               1
     1  C    0.000000
     6  C    0.000000
 Electronic spatial extent (au):  <R**2>=           1000.0219
 Charge=              0.0000 electrons
 Dipole moment (field-independent basis, Debye):
    X=             -0.0018    Y=             -0.0142    Z=             -0.0484  Tot=              0.0505
 Quadrupole moment (field-independent basis, Debye-Ang):
   XX=             -6.9583   YY=            -15.6203   ZZ=            -15.8685
   XY=             -0.0702   XZ=             -0.1011   YZ=             -0.0019
 Traceless Quadrupole moment (field-independent basis, Debye-Ang):
   XX=              5.8574   YY=             -2.8046   ZZ=             -3.0528
   XY=             -0.0702   XZ=             -0.1011   YZ=             -0.0019
 Octapole moment (field-independent basis, Debye-Ang**2):
  XXX=             -0.1913  YYY=              0.1775  ZZZ=              1.4553  XYY=              0.7040
  XXY=             -0.1095  XXZ=             -0.9932  XZZ=             -0.6586  YZZ=             -0.2028
  YYZ=             -1.4607  XYZ=              0.7032
 Hexadecapole moment (field-independent basis, Debye-Ang**3):
 XXXX=          -1154.4105 YYYY=            -28.3908 ZZZZ=            -28.2312 XXXY=             -1.3433
 XXXZ=             -2.1050 YYYX=              1.9197 YYYZ=              0.0671 ZZZX=             -0.2274
 ZZZY=             -0.0884 XXYY=           -210.3259 XXZZ=           -213.2001 YYZZ=             -9.5466
 XXYZ=             -0.0942 YYXZ=              0.3156 ZZXY=             -1.8629
 N-N= 3.482302135097D+01 E-N=-2.547924815183D+02  KE= 8.003272713706D+01
 1|1|UNPC-INANI_LAP|SP|RB3LYP|3-21G|C2H8|EMMAN|29-Mar-2026|0||# b3lyp/3
 -21g geom=connectivity||Title Card Required - Distancia +5.50A - Paso 
 22||0,1|C,0,-2.07749416,-0.63700562,-0.01419458|H,0,-1.26790947,-1.330
 69728,0.07671479|H,0,-1.78518986,-0.23363379,0.93277394|H,0,-1.6622021
 8,-0.19108573,-0.89373311|H,0,-2.75060946,-1.44993395,-0.19015855|C,0,
 -7.53100753,3.81343005,0.10497986|H,0,-8.18371504,2.98254082,0.2737874
 |H,0,-7.10838113,4.3251322,0.94429378|H,0,-7.26769384,4.17348483,-0.86
 760764|H,0,-8.38134036,4.46249644,0.12836598||Version=IA32W-G09RevD.01
 |State=1-A|HF=-80.5148295|RMSD=1.396e-009|Dipole=-0.0024561,-0.0024194
 ,0.0195469|Quadrupole=1.7819768,0.453624,-2.2356008,-3.1693557,0.02702
 37,0.0712459|PG=C01 [X(C2H8)]||@


 IF YOU BELIEVE CERTAIN WORDS, YOU BELIEVE THEIR HIDDEN ARGUMENTS.
 WHEN YOU BELIEVE SOMETHING IS RIGHT OR WRONG, TRUE OR FALSE, 
 YOU BELIEVE THE ASSUMPTIONS IN THE WORDS WHICH EXPRESS THE ARGUMENTS.
 SUCH ASSUMPTIONS ARE OFTEN FULL OF HOLES, BUT REMAIN MOST PRECIOUS 
 TO THE CONVINCED.

                 -- THE OPEN-ENDED PROOF FROM THE PANOPLIA PROPHETICA
                    CHILDREN OF DUNE BY FRANK HERBERT
 Job cpu time:       0 days  0 hours  0 minutes  2.0 seconds.
 File lengths (MBytes):  RWF=      5 Int=      0 D2E=      0 Chk=      1 Scr=      1
 Normal termination of Gaussian 09 at Sun Mar 29 02:37:48 2026.
