 Entering Link 1 = C:\G09W\l1.exe PID=      2168.
  
 Copyright (c) 1988,1990,1992,1993,1995,1998,2003,2009,2013,
            Gaussian, Inc.  All Rights Reserved.
  
 This is part of the Gaussian(R) 09 program.  It is based on
 the Gaussian(R) 03 system (copyright 2003, Gaussian, Inc.),
 the Gaussian(R) 98 system (copyright 1998, Gaussian, Inc.),
 the Gaussian(R) 94 system (copyright 1995, Gaussian, Inc.),
 the Gaussian 92(TM) system (copyright 1992, Gaussian, Inc.),
 the Gaussian 90(TM) system (copyright 1990, Gaussian, Inc.),
 the Gaussian 88(TM) system (copyright 1988, Gaussian, Inc.),
 the Gaussian 86(TM) system (copyright 1986, Carnegie Mellon
 University), and the Gaussian 82(TM) system (copyright 1983,
 Carnegie Mellon University). Gaussian is a federally registered
 trademark of Gaussian, Inc.
  
 This software contains proprietary and confidential information,
 including trade secrets, belonging to Gaussian, Inc.
  
 This software is provided under written license and may be
 used, copied, transmitted, or stored only in accord with that
 written license.
  
 The following legend is applicable only to US Government
 contracts under FAR:
  
                    RESTRICTED RIGHTS LEGEND
  
 Use, reproduction and disclosure by the US Government is
 subject to restrictions as set forth in subparagraphs (a)
 and (c) of the Commercial Computer Software - Restricted
 Rights clause in FAR 52.227-19.
  
 Gaussian, Inc.
 340 Quinnipiac St., Bldg. 40, Wallingford CT 06492
  
  
 ---------------------------------------------------------------
 Warning -- This program may not be used in any manner that
 competes with the business of Gaussian, Inc. or will provide
 assistance to any competitor of Gaussian, Inc.  The licensee
 of this program is prohibited from giving any competitor of
 Gaussian, Inc. access to this program.  By using this program,
 the user acknowledges that Gaussian, Inc. is engaged in the
 business of creating and licensing software in the field of
 computational chemistry and represents and warrants to the
 licensee that it is not a competitor of Gaussian, Inc. and that
 it will not use this program in any manner prohibited above.
 ---------------------------------------------------------------
  

 Cite this work as:
 Gaussian 09, Revision D.01,
 M. J. Frisch, G. W. Trucks, H. B. Schlegel, G. E. Scuseria, 
 M. A. Robb, J. R. Cheeseman, G. Scalmani, V. Barone, B. Mennucci, 
 G. A. Petersson, H. Nakatsuji, M. Caricato, X. Li, H. P. Hratchian, 
 A. F. Izmaylov, J. Bloino, G. Zheng, J. L. Sonnenberg, M. Hada, 
 M. Ehara, K. Toyota, R. Fukuda, J. Hasegawa, M. Ishida, T. Nakajima, 
 Y. Honda, O. Kitao, H. Nakai, T. Vreven, J. A. Montgomery, Jr., 
 J. E. Peralta, F. Ogliaro, M. Bearpark, J. J. Heyd, E. Brothers, 
 K. N. Kudin, V. N. Staroverov, T. Keith, R. Kobayashi, J. Normand, 
 K. Raghavachari, A. Rendell, J. C. Burant, S. S. Iyengar, J. Tomasi, 
 M. Cossi, N. Rega, J. M. Millam, M. Klene, J. E. Knox, J. B. Cross, 
 V. Bakken, C. Adamo, J. Jaramillo, R. Gomperts, R. E. Stratmann, 
 O. Yazyev, A. J. Austin, R. Cammi, C. Pomelli, J. W. Ochterski, 
 R. L. Martin, K. Morokuma, V. G. Zakrzewski, G. A. Voth, 
 P. Salvador, J. J. Dannenberg, S. Dapprich, A. D. Daniels, 
 O. Farkas, J. B. Foresman, J. V. Ortiz, J. Cioslowski, 
 and D. J. Fox, Gaussian, Inc., Wallingford CT, 2013.
 
 ******************************************
 Gaussian 09:  IA32W-G09RevD.01 24-Apr-2013
                29-Mar-2026 
 ******************************************
 %chk=C:\Users\emman\Escritorio\quimica-enlaces\molecula\H2O.chk
 -------------------------------
 # b3lyp/3-21g geom=connectivity
 -------------------------------
 1/38=1,57=2/1;
 2/12=2,17=6,18=5,40=1/2;
 3/5=5,11=2,16=1,25=1,30=1,74=-5/1,2,3;
 4//1;
 5/5=2,38=5/2;
 6/7=2,8=2,9=2,10=2,28=1/1;
 99/5=1,9=1/99;
 ------------------------------------------------
 Title Card Required - Distancia +3.50A - Paso 14
 ------------------------------------------------
 Symbolic Z-matrix:
 Charge =  0 Multiplicity = 1
 C                    -2.07749  -0.63701  -0.01419 
 H                    -1.26791  -1.3307    0.07671 
 H                    -1.78519  -0.23363   0.93277 
 H                    -1.6622   -0.19109  -0.89373 
 H                    -2.75061  -1.44993  -0.19016 
 C                    -5.98152   2.54939   0.06896 
 H                    -6.63423   1.7185    0.23777 
 H                    -5.55889   3.06109   0.90828 
 H                    -5.71821   2.90945  -0.90362 
 H                    -6.83185   3.19846   0.09235 
 
                          Input orientation:                          
 ---------------------------------------------------------------------
 Center     Atomic      Atomic             Coordinates (Angstroms)
 Number     Number       Type             X           Y           Z
 ---------------------------------------------------------------------
      1          6           0       -2.077494   -0.637006   -0.014195
      2          1           0       -1.267909   -1.330697    0.076715
      3          1           0       -1.785190   -0.233634    0.932774
      4          1           0       -1.662202   -0.191086   -0.893733
      5          1           0       -2.750609   -1.449934   -0.190159
      6          6           0       -5.981521    2.549392    0.068964
      7          1           0       -6.634228    1.718503    0.237771
      8          1           0       -5.558894    3.061094    0.908278
      9          1           0       -5.718207    2.909447   -0.903624
     10          1           0       -6.831853    3.198458    0.092350
 ---------------------------------------------------------------------
                    Distance matrix (angstroms):
                    1          2          3          4          5
     1  C    0.000000
     2  H    1.070000   0.000000
     3  H    1.070000   1.484576   0.000000
     4  H    1.070000   1.547886   1.831137   0.000000
     5  H    1.070000   1.511237   1.916350   1.806750   0.000000
     6  C    5.039987   6.105185   5.108874   5.205143   5.147867
     7  H    5.135731   6.174215   5.273238   5.444986   5.030368
     8  H    5.162077   6.196118   5.009658   5.385919   5.426085
     9  H    5.159767   6.224551   5.359098   5.105347   5.321641
    10  H    6.109506   7.174327   6.160713   6.259925   6.192246
                    6          7          8          9         10
     6  C    0.000000
     7  H    1.070000   0.000000
     8  H    1.070000   1.846205   0.000000
     9  H    1.070000   1.886856   1.825203   0.000000
    10  H    1.070000   1.500157   1.518233   1.521742   0.000000
 Stoichiometry    C2H8
 Framework group  C1[X(C2H8)]
 Deg. of freedom    24
 Full point group                 C1      NOp   1
 Largest Abelian subgroup         C1      NOp   1
 Largest concise Abelian subgroup C1      NOp   1
                         Standard orientation:                         
 ---------------------------------------------------------------------
 Center     Atomic      Atomic             Coordinates (Angstroms)
 Number     Number       Type             X           Y           Z
 ---------------------------------------------------------------------
      1          6           0        2.520014    0.002388   -0.000555
      2          1           0        3.584128   -0.023070   -0.109710
      3          1           0        2.475280   -0.863214   -0.627956
      4          1           0        2.574884   -0.152612    1.056736
      5          1           0        2.515459    1.026329   -0.311077
      6          6           0       -2.519971    0.003236    0.002378
      7          1           0       -2.503257    0.874919   -0.617937
      8          1           0       -2.530388   -0.963905   -0.455257
      9          1           0       -2.526966    0.035726    1.071862
     10          1           0       -3.589396    0.032083   -0.017601
 ---------------------------------------------------------------------
 Rotational constants (GHZ):     72.9118185      2.2954869      2.2937944
 Standard basis: 3-21G (6D, 7F)
 There are    34 symmetry adapted cartesian basis functions of A   symmetry.
 There are    34 symmetry adapted basis functions of A   symmetry.
    34 basis functions,    54 primitive gaussians,    34 cartesian basis functions
    10 alpha electrons       10 beta electrons
       nuclear repulsion energy        37.5595843565 Hartrees.
 NAtoms=   10 NActive=   10 NUniq=   10 SFac= 1.00D+00 NAtFMM=   60 NAOKFM=F Big=F
 Integral buffers will be    262144 words long.
 Raffenetti 2 integral format.
 Two-electron integral symmetry is turned on.
 One-electron integrals computed using PRISM.
 NBasis=    34 RedAO= T EigKep=  2.90D-02  NBF=    34
 NBsUse=    34 1.00D-06 EigRej= -1.00D+00 NBFU=    34
 ExpMin= 1.83D-01 ExpMax= 1.72D+02 ExpMxC= 1.72D+02 IAcc=1 IRadAn=         1 AccDes= 0.00D+00
 Harris functional with IExCor=  402 and IRadAn=       1 diagonalized for initial guess.
 HarFok:  IExCor=  402 AccDes= 0.00D+00 IRadAn=         1 IDoV= 1 UseB2=F ITyADJ=14
 ICtDFT=  3500011 ScaDFX=  1.000000  1.000000  1.000000  1.000000
 FoFCou: FMM=F IPFlag=           0 FMFlag=      100000 FMFlg1=           0
         NFxFlg=           0 DoJE=T BraDBF=F KetDBF=T FulRan=T
         wScrn=  0.000000 ICntrl=     500 IOpCl=  0 I1Cent=   200000004 NGrid=           0
         NMat0=    1 NMatS0=      1 NMatT0=    0 NMatD0=    1 NMtDS0=    0 NMtDT0=    0
 Petite list used in FoFCou.
 Keep R1 ints in memory in canonical form, NReq=1056238.
 Requested convergence on RMS density matrix=1.00D-08 within 128 cycles.
 Requested convergence on MAX density matrix=1.00D-06.
 Requested convergence on             energy=1.00D-06.
 No special actions if energy rises.
 Integral accuracy reduced to 1.0D-05 until final iterations.
 Initial convergence to 1.0D-05 achieved.  Increase integral accuracy.
 SCF Done:  E(RB3LYP) =  -80.5145481115     A.U. after   10 cycles
            NFock= 10  Conv=0.25D-08     -V/T= 2.0060

 **********************************************************************

            Population analysis using the SCF density.

 **********************************************************************

 Orbital symmetries:
       Occupied  (A) (A) (A) (A) (A) (A) (A) (A) (A) (A)
       Virtual   (A) (A) (A) (A) (A) (A) (A) (A) (A) (A) (A) (A)
                 (A) (A) (A) (A) (A) (A) (A) (A) (A) (A) (A) (A)
 The electronic state is 1-A.
 Alpha  occ. eigenvalues --  -10.09000 -10.09000  -0.71502  -0.71499  -0.42210
 Alpha  occ. eigenvalues --   -0.41721  -0.40574  -0.40145  -0.33050  -0.32927
 Alpha virt. eigenvalues --    0.13594   0.13686   0.16662   0.17053   0.20560
 Alpha virt. eigenvalues --    0.20799   0.21442   0.21725   0.68112   0.69131
 Alpha virt. eigenvalues --    0.70399   0.71029   0.73035   0.74145   0.99395
 Alpha virt. eigenvalues --    0.99873   1.07928   1.08241   1.09182   1.09514
 Alpha virt. eigenvalues --    1.16281   1.16367   1.75369   1.75615
          Condensed to atoms (all electrons):
               1          2          3          4          5          6
     1  C    5.351262   0.308379   0.381573   0.377890   0.381029   0.000008
     2  H    0.308379   0.664781  -0.060771  -0.050070  -0.056520   0.000000
     3  H    0.381573  -0.060771   0.508906  -0.019704  -0.011530   0.000001
     4  H    0.377890  -0.050070  -0.019704   0.512503  -0.022347   0.000000
     5  H    0.381029  -0.056520  -0.011530  -0.022347   0.506680   0.000000
     6  C    0.000008   0.000000   0.000001   0.000000   0.000000   5.349869
     7  H    0.000000   0.000000   0.000000   0.000000   0.000000   0.381458
     8  H    0.000000   0.000000   0.000000   0.000000   0.000000   0.378405
     9  H    0.000000   0.000000   0.000000   0.000000   0.000000   0.381047
    10  H    0.000000   0.000000   0.000000   0.000000   0.000000   0.308031
               7          8          9         10
     1  C    0.000000   0.000000   0.000000   0.000000
     2  H    0.000000   0.000000   0.000000   0.000000
     3  H    0.000000   0.000000   0.000000   0.000000
     4  H    0.000000   0.000000   0.000000   0.000000
     5  H    0.000000   0.000000   0.000000   0.000000
     6  C    0.381458   0.378405   0.381047   0.308031
     7  H    0.507907  -0.018190  -0.014325  -0.058127
     8  H   -0.018190   0.513837  -0.020400  -0.054734
     9  H   -0.014325  -0.020400   0.506317  -0.054682
    10  H   -0.058127  -0.054734  -0.054682   0.665093
 Mulliken charges:
               1
     1  C   -0.800143
     2  H    0.194201
     3  H    0.201526
     4  H    0.201728
     5  H    0.202688
     6  C   -0.798820
     7  H    0.201277
     8  H    0.201081
     9  H    0.202042
    10  H    0.194419
 Sum of Mulliken charges =   0.00000
 Mulliken charges with hydrogens summed into heavy atoms:
               1
     1  C    0.000000
     6  C    0.000000
 Electronic spatial extent (au):  <R**2>=            555.8457
 Charge=              0.0000 electrons
 Dipole moment (field-independent basis, Debye):
    X=             -0.0017    Y=             -0.0141    Z=             -0.0476  Tot=              0.0497
 Quadrupole moment (field-independent basis, Debye-Ang):
   XX=            -10.2959   YY=            -15.6263   ZZ=            -15.8743
   XY=             -0.0529   XZ=             -0.0778   YZ=             -0.0019
 Traceless Quadrupole moment (field-independent basis, Debye-Ang):
   XX=              3.6363   YY=             -1.6942   ZZ=             -1.9421
   XY=             -0.0529   XZ=             -0.0778   YZ=             -0.0019
 Octapole moment (field-independent basis, Debye-Ang**2):
  XXX=             -0.1203  YYY=              0.1774  ZZZ=              1.4504  XYY=              0.5054
  XXY=             -0.0450  XXZ=             -0.5866  XZZ=             -0.4716  YZZ=             -0.2021
  YYZ=             -1.4562  XYZ=              0.5033
 Hexadecapole moment (field-independent basis, Debye-Ang**3):
 XXXX=           -660.2607 YYYY=            -28.4085 ZZZZ=            -28.2486 XXXY=             -0.6128
 XXXZ=             -0.9742 YYYX=              1.3924 YYYZ=              0.0671 ZZZX=             -0.1532
 ZZZY=             -0.0883 XXYY=           -114.2108 XXZZ=           -115.6170 YYZZ=             -9.5520
 XXYZ=             -0.0622 YYXZ=              0.2310 ZZXY=             -1.3410
 N-N= 3.755958435646D+01 E-N=-2.603019062369D+02  KE= 8.003308119434D+01
 1|1|UNPC-INANI_LAP|SP|RB3LYP|3-21G|C2H8|EMMAN|29-Mar-2026|0||# b3lyp/3
 -21g geom=connectivity||Title Card Required - Distancia +3.50A - Paso 
 14||0,1|C,0,-2.07749416,-0.63700562,-0.01419458|H,0,-1.26790947,-1.330
 69728,0.07671479|H,0,-1.78518986,-0.23363379,0.93277394|H,0,-1.6622021
 8,-0.19108573,-0.89373311|H,0,-2.75060946,-1.44993395,-0.19015855|C,0,
 -5.98152052,2.54939173,0.06896372|H,0,-6.63422803,1.7185025,0.23777126
 |H,0,-5.55889412,3.06109388,0.90827764|H,0,-5.71820683,2.90944651,-0.9
 0362378|H,0,-6.83185335,3.19845812,0.09234984||Version=IA32W-G09RevD.0
 1|State=1-A|HF=-80.5145481|RMSD=2.514e-009|Dipole=-0.0023682,-0.002384
 3,0.0192441|Quadrupole=1.1166832,0.2932024,-1.4098857,-1.9568821,0.044
 8778,0.0566564|PG=C01 [X(C2H8)]||@


 IF YOU BELIEVE CERTAIN WORDS, YOU BELIEVE THEIR HIDDEN ARGUMENTS.
 WHEN YOU BELIEVE SOMETHING IS RIGHT OR WRONG, TRUE OR FALSE, 
 YOU BELIEVE THE ASSUMPTIONS IN THE WORDS WHICH EXPRESS THE ARGUMENTS.
 SUCH ASSUMPTIONS ARE OFTEN FULL OF HOLES, BUT REMAIN MOST PRECIOUS 
 TO THE CONVINCED.

                 -- THE OPEN-ENDED PROOF FROM THE PANOPLIA PROPHETICA
                    CHILDREN OF DUNE BY FRANK HERBERT
 Job cpu time:       0 days  0 hours  0 minutes  2.0 seconds.
 File lengths (MBytes):  RWF=      5 Int=      0 D2E=      0 Chk=      1 Scr=      1
 Normal termination of Gaussian 09 at Sun Mar 29 02:37:29 2026.
