 Entering Link 1 = C:\G09W\l1.exe PID=     15640.
  
 Copyright (c) 1988,1990,1992,1993,1995,1998,2003,2009,2013,
            Gaussian, Inc.  All Rights Reserved.
  
 This is part of the Gaussian(R) 09 program.  It is based on
 the Gaussian(R) 03 system (copyright 2003, Gaussian, Inc.),
 the Gaussian(R) 98 system (copyright 1998, Gaussian, Inc.),
 the Gaussian(R) 94 system (copyright 1995, Gaussian, Inc.),
 the Gaussian 92(TM) system (copyright 1992, Gaussian, Inc.),
 the Gaussian 90(TM) system (copyright 1990, Gaussian, Inc.),
 the Gaussian 88(TM) system (copyright 1988, Gaussian, Inc.),
 the Gaussian 86(TM) system (copyright 1986, Carnegie Mellon
 University), and the Gaussian 82(TM) system (copyright 1983,
 Carnegie Mellon University). Gaussian is a federally registered
 trademark of Gaussian, Inc.
  
 This software contains proprietary and confidential information,
 including trade secrets, belonging to Gaussian, Inc.
  
 This software is provided under written license and may be
 used, copied, transmitted, or stored only in accord with that
 written license.
  
 The following legend is applicable only to US Government
 contracts under FAR:
  
                    RESTRICTED RIGHTS LEGEND
  
 Use, reproduction and disclosure by the US Government is
 subject to restrictions as set forth in subparagraphs (a)
 and (c) of the Commercial Computer Software - Restricted
 Rights clause in FAR 52.227-19.
  
 Gaussian, Inc.
 340 Quinnipiac St., Bldg. 40, Wallingford CT 06492
  
  
 ---------------------------------------------------------------
 Warning -- This program may not be used in any manner that
 competes with the business of Gaussian, Inc. or will provide
 assistance to any competitor of Gaussian, Inc.  The licensee
 of this program is prohibited from giving any competitor of
 Gaussian, Inc. access to this program.  By using this program,
 the user acknowledges that Gaussian, Inc. is engaged in the
 business of creating and licensing software in the field of
 computational chemistry and represents and warrants to the
 licensee that it is not a competitor of Gaussian, Inc. and that
 it will not use this program in any manner prohibited above.
 ---------------------------------------------------------------
  

 Cite this work as:
 Gaussian 09, Revision D.01,
 M. J. Frisch, G. W. Trucks, H. B. Schlegel, G. E. Scuseria, 
 M. A. Robb, J. R. Cheeseman, G. Scalmani, V. Barone, B. Mennucci, 
 G. A. Petersson, H. Nakatsuji, M. Caricato, X. Li, H. P. Hratchian, 
 A. F. Izmaylov, J. Bloino, G. Zheng, J. L. Sonnenberg, M. Hada, 
 M. Ehara, K. Toyota, R. Fukuda, J. Hasegawa, M. Ishida, T. Nakajima, 
 Y. Honda, O. Kitao, H. Nakai, T. Vreven, J. A. Montgomery, Jr., 
 J. E. Peralta, F. Ogliaro, M. Bearpark, J. J. Heyd, E. Brothers, 
 K. N. Kudin, V. N. Staroverov, T. Keith, R. Kobayashi, J. Normand, 
 K. Raghavachari, A. Rendell, J. C. Burant, S. S. Iyengar, J. Tomasi, 
 M. Cossi, N. Rega, J. M. Millam, M. Klene, J. E. Knox, J. B. Cross, 
 V. Bakken, C. Adamo, J. Jaramillo, R. Gomperts, R. E. Stratmann, 
 O. Yazyev, A. J. Austin, R. Cammi, C. Pomelli, J. W. Ochterski, 
 R. L. Martin, K. Morokuma, V. G. Zakrzewski, G. A. Voth, 
 P. Salvador, J. J. Dannenberg, S. Dapprich, A. D. Daniels, 
 O. Farkas, J. B. Foresman, J. V. Ortiz, J. Cioslowski, 
 and D. J. Fox, Gaussian, Inc., Wallingford CT, 2013.
 
 ******************************************
 Gaussian 09:  IA32W-G09RevD.01 24-Apr-2013
                29-Mar-2026 
 ******************************************
 %chk=C:\Users\emman\Escritorio\quimica-enlaces\molecula\H2O.chk
 -------------------------------
 # b3lyp/3-21g geom=connectivity
 -------------------------------
 1/38=1,57=2/1;
 2/12=2,17=6,18=5,40=1/2;
 3/5=5,11=2,16=1,25=1,30=1,74=-5/1,2,3;
 4//1;
 5/5=2,38=5/2;
 6/7=2,8=2,9=2,10=2,28=1/1;
 99/5=1,9=1/99;
 ------------------------------------------------
 Title Card Required - Distancia +4.25A - Paso 17
 ------------------------------------------------
 Symbolic Z-matrix:
 Charge =  0 Multiplicity = 1
 C                    -2.07749  -0.63701  -0.01419 
 H                    -1.26791  -1.3307    0.07671 
 H                    -1.78519  -0.23363   0.93277 
 H                    -1.6622   -0.19109  -0.89373 
 H                    -2.75061  -1.44993  -0.19016 
 C                    -6.56258   3.02341   0.08247 
 H                    -7.21529   2.19252   0.25128 
 H                    -6.13995   3.53511   0.92178 
 H                    -6.29926   3.38346  -0.89012 
 H                    -7.41291   3.67247   0.10586 
 
                          Input orientation:                          
 ---------------------------------------------------------------------
 Center     Atomic      Atomic             Coordinates (Angstroms)
 Number     Number       Type             X           Y           Z
 ---------------------------------------------------------------------
      1          6           0       -2.077494   -0.637006   -0.014195
      2          1           0       -1.267909   -1.330697    0.076715
      3          1           0       -1.785190   -0.233634    0.932774
      4          1           0       -1.662202   -0.191086   -0.893733
      5          1           0       -2.750609   -1.449934   -0.190159
      6          6           0       -6.562578    3.023406    0.082470
      7          1           0       -7.215286    2.192517    0.251277
      8          1           0       -6.139952    3.535108    0.921784
      9          1           0       -6.299264    3.383461   -0.890118
     10          1           0       -7.412911    3.672472    0.105856
 ---------------------------------------------------------------------
                    Distance matrix (angstroms):
                    1          2          3          4          5
     1  C    0.000000
     2  H    1.070000   0.000000
     3  H    1.070000   1.484576   0.000000
     4  H    1.070000   1.547886   1.831137   0.000000
     5  H    1.070000   1.511237   1.916350   1.806750   0.000000
     6  C    5.789986   6.855054   5.844208   5.941348   5.883554
     7  H    5.871420   6.914824   5.986367   6.150557   5.778897
     8  H    5.897979   6.937363   5.759122   6.101710   6.129821
     9  H    5.895315   6.962226   6.064914   5.854891   6.036936
    10  H    6.859496   7.924241   6.900196   6.999779   6.932801
                    6          7          8          9         10
     6  C    0.000000
     7  H    1.070000   0.000000
     8  H    1.070000   1.846205   0.000000
     9  H    1.070000   1.886856   1.825203   0.000000
    10  H    1.070000   1.500157   1.518233   1.521742   0.000000
 Stoichiometry    C2H8
 Framework group  C1[X(C2H8)]
 Deg. of freedom    24
 Full point group                 C1      NOp   1
 Largest Abelian subgroup         C1      NOp   1
 Largest concise Abelian subgroup C1      NOp   1
                         Standard orientation:                         
 ---------------------------------------------------------------------
 Center     Atomic      Atomic             Coordinates (Angstroms)
 Number     Number       Type             X           Y           Z
 ---------------------------------------------------------------------
      1          6           0        2.895014    0.002370   -0.000602
      2          1           0        3.959112   -0.023135   -0.109895
      3          1           0        2.850161   -0.863237   -0.627988
      4          1           0        2.950015   -0.152621    1.056684
      5          1           0        2.890463    1.026307   -0.311135
      6          6           0       -2.894971    0.003255    0.002425
      7          1           0       -2.878300    0.874929   -0.617902
      8          1           0       -2.905489   -0.963891   -0.455197
      9          1           0       -2.901825    0.035757    1.071909
     10          1           0       -3.964397    0.032147   -0.017415
 ---------------------------------------------------------------------
 Rotational constants (GHZ):     72.9117435      1.7616001      1.7606032
 Standard basis: 3-21G (6D, 7F)
 There are    34 symmetry adapted cartesian basis functions of A   symmetry.
 There are    34 symmetry adapted basis functions of A   symmetry.
    34 basis functions,    54 primitive gaussians,    34 cartesian basis functions
    10 alpha electrons       10 beta electrons
       nuclear repulsion energy        36.3230661171 Hartrees.
 NAtoms=   10 NActive=   10 NUniq=   10 SFac= 1.00D+00 NAtFMM=   60 NAOKFM=F Big=F
 Integral buffers will be    262144 words long.
 Raffenetti 2 integral format.
 Two-electron integral symmetry is turned on.
 One-electron integrals computed using PRISM.
 NBasis=    34 RedAO= T EigKep=  2.90D-02  NBF=    34
 NBsUse=    34 1.00D-06 EigRej= -1.00D+00 NBFU=    34
 ExpMin= 1.83D-01 ExpMax= 1.72D+02 ExpMxC= 1.72D+02 IAcc=1 IRadAn=         1 AccDes= 0.00D+00
 Harris functional with IExCor=  402 and IRadAn=       1 diagonalized for initial guess.
 HarFok:  IExCor=  402 AccDes= 0.00D+00 IRadAn=         1 IDoV= 1 UseB2=F ITyADJ=14
 ICtDFT=  3500011 ScaDFX=  1.000000  1.000000  1.000000  1.000000
 FoFCou: FMM=F IPFlag=           0 FMFlag=      100000 FMFlg1=           0
         NFxFlg=           0 DoJE=T BraDBF=F KetDBF=T FulRan=T
         wScrn=  0.000000 ICntrl=     500 IOpCl=  0 I1Cent=   200000004 NGrid=           0
         NMat0=    1 NMatS0=      1 NMatT0=    0 NMatD0=    1 NMtDS0=    0 NMtDT0=    0
 Petite list used in FoFCou.
 Keep R1 ints in memory in canonical form, NReq=1056238.
 Requested convergence on RMS density matrix=1.00D-08 within 128 cycles.
 Requested convergence on MAX density matrix=1.00D-06.
 Requested convergence on             energy=1.00D-06.
 No special actions if energy rises.
 Integral accuracy reduced to 1.0D-05 until final iterations.
 Initial convergence to 1.0D-05 achieved.  Increase integral accuracy.
 SCF Done:  E(RB3LYP) =  -80.5147048688     A.U. after   10 cycles
            NFock= 10  Conv=0.19D-08     -V/T= 2.0060

 **********************************************************************

            Population analysis using the SCF density.

 **********************************************************************

 Orbital symmetries:
       Occupied  (A) (A) (A) (A) (A) (A) (A) (A) (A) (A)
       Virtual   (A) (A) (A) (A) (A) (A) (A) (A) (A) (A) (A) (A)
                 (A) (A) (A) (A) (A) (A) (A) (A) (A) (A) (A) (A)
 The electronic state is 1-A.
 Alpha  occ. eigenvalues --  -10.09084 -10.09084  -0.71588  -0.71587  -0.42300
 Alpha  occ. eigenvalues --   -0.41811  -0.40663  -0.40233  -0.33133  -0.33041
 Alpha virt. eigenvalues --    0.13522   0.13599   0.16727   0.16808   0.20481
 Alpha virt. eigenvalues --    0.20719   0.21363   0.21643   0.68446   0.68552
 Alpha virt. eigenvalues --    0.70307   0.70937   0.72942   0.74052   0.99507
 Alpha virt. eigenvalues --    0.99571   1.07847   1.08158   1.09098   1.09427
 Alpha virt. eigenvalues --    1.16200   1.16286   1.75291   1.75519
          Condensed to atoms (all electrons):
               1          2          3          4          5          6
     1  C    5.353370   0.308966   0.381380   0.377749   0.380850   0.000000
     2  H    0.308966   0.662456  -0.060522  -0.049883  -0.056290   0.000000
     3  H    0.381380  -0.060522   0.508539  -0.019709  -0.011547   0.000000
     4  H    0.377749  -0.049883  -0.019709   0.512059  -0.022345   0.000000
     5  H    0.380850  -0.056290  -0.011547  -0.022345   0.506277   0.000000
     6  C    0.000000   0.000000   0.000000   0.000000   0.000000   5.351981
     7  H    0.000000   0.000000   0.000000   0.000000   0.000000   0.381274
     8  H    0.000000   0.000000   0.000000   0.000000   0.000000   0.378240
     9  H    0.000000   0.000000   0.000000   0.000000   0.000000   0.380879
    10  H    0.000000   0.000000   0.000000   0.000000   0.000000   0.308625
               7          8          9         10
     1  C    0.000000   0.000000   0.000000   0.000000
     2  H    0.000000   0.000000   0.000000   0.000000
     3  H    0.000000   0.000000   0.000000   0.000000
     4  H    0.000000   0.000000   0.000000   0.000000
     5  H    0.000000   0.000000   0.000000   0.000000
     6  C    0.381274   0.378240   0.380879   0.308625
     7  H    0.507524  -0.018200  -0.014335  -0.057890
     8  H   -0.018200   0.513412  -0.020403  -0.054519
     9  H   -0.014335  -0.020403   0.505918  -0.054464
    10  H   -0.057890  -0.054519  -0.054464   0.662750
 Mulliken charges:
               1
     1  C   -0.802315
     2  H    0.195273
     3  H    0.201858
     4  H    0.202129
     5  H    0.203054
     6  C   -0.800999
     7  H    0.201626
     8  H    0.201470
     9  H    0.202405
    10  H    0.195498
 Sum of Mulliken charges =   0.00000
 Mulliken charges with hydrogens summed into heavy atoms:
               1
     1  C    0.000000
     6  C    0.000000
 Electronic spatial extent (au):  <R**2>=            705.6586
 Charge=              0.0000 electrons
 Dipole moment (field-independent basis, Debye):
    X=             -0.0017    Y=             -0.0142    Z=             -0.0480  Tot=              0.0501
 Quadrupole moment (field-independent basis, Debye-Ang):
   XX=             -9.0282   YY=            -15.6228   ZZ=            -15.8709
   XY=             -0.0595   XZ=             -0.0867   YZ=             -0.0019
 Traceless Quadrupole moment (field-independent basis, Debye-Ang):
   XX=              4.4791   YY=             -2.1155   ZZ=             -2.3636
   XY=             -0.0595   XZ=             -0.0867   YZ=             -0.0019
 Octapole moment (field-independent basis, Debye-Ang**2):
  XXX=             -0.1460  YYY=              0.1775  ZZZ=              1.4532  XYY=              0.5799
  XXY=             -0.0658  XXZ=             -0.7285  XZZ=             -0.5417  YZZ=             -0.2025
  YYZ=             -1.4588  XYZ=              0.5783
 Hexadecapole moment (field-independent basis, Debye-Ang**3):
 XXXX=           -833.4401 YYYY=            -28.3981 ZZZZ=            -28.2384 XXXY=             -0.8442
 XXXZ=             -1.3358 YYYX=              1.5908 YYYZ=              0.0671 ZZZX=             -0.1810
 ZZZY=             -0.0884 XXYY=           -146.5853 XXZZ=           -148.4838 YYZZ=             -9.5488
 XXYZ=             -0.0737 YYXZ=              0.2629 ZZXY=             -1.5372
 N-N= 3.632306611711D+01 E-N=-2.578111080421D+02  KE= 8.003290956227D+01
 1|1|UNPC-INANI_LAP|SP|RB3LYP|3-21G|C2H8|EMMAN|29-Mar-2026|0||# b3lyp/3
 -21g geom=connectivity||Title Card Required - Distancia +4.25A - Paso 
 17||0,1|C,0,-2.07749416,-0.63700562,-0.01419458|H,0,-1.26790947,-1.330
 69728,0.07671479|H,0,-1.78518986,-0.23363379,0.93277394|H,0,-1.6622021
 8,-0.19108573,-0.89373311|H,0,-2.75060946,-1.44993395,-0.19015855|C,0,
 -6.56257815,3.0234061,0.08246977|H,0,-7.21528566,2.19251687,0.25127731
 |H,0,-6.13995175,3.53510825,0.92178369|H,0,-6.29926446,3.38346088,-0.8
 9011773|H,0,-7.41291098,3.67247249,0.10585589||Version=IA32W-G09RevD.0
 1|State=1-A|HF=-80.5147049|RMSD=1.905e-009|Dipole=-0.0024157,-0.002400
 8,0.0194062|Quadrupole=1.3691335,0.3541098,-1.7232433,-2.4169843,0.038
 1967,0.062148|PG=C01 [X(C2H8)]||@


 IF YOU BELIEVE CERTAIN WORDS, YOU BELIEVE THEIR HIDDEN ARGUMENTS.
 WHEN YOU BELIEVE SOMETHING IS RIGHT OR WRONG, TRUE OR FALSE, 
 YOU BELIEVE THE ASSUMPTIONS IN THE WORDS WHICH EXPRESS THE ARGUMENTS.
 SUCH ASSUMPTIONS ARE OFTEN FULL OF HOLES, BUT REMAIN MOST PRECIOUS 
 TO THE CONVINCED.

                 -- THE OPEN-ENDED PROOF FROM THE PANOPLIA PROPHETICA
                    CHILDREN OF DUNE BY FRANK HERBERT
 Job cpu time:       0 days  0 hours  0 minutes  2.0 seconds.
 File lengths (MBytes):  RWF=      5 Int=      0 D2E=      0 Chk=      1 Scr=      1
 Normal termination of Gaussian 09 at Sun Mar 29 02:37:36 2026.
