 Entering Link 1 = C:\G09W\l1.exe PID=      4724.
  
 Copyright (c) 1988,1990,1992,1993,1995,1998,2003,2009,2013,
            Gaussian, Inc.  All Rights Reserved.
  
 This is part of the Gaussian(R) 09 program.  It is based on
 the Gaussian(R) 03 system (copyright 2003, Gaussian, Inc.),
 the Gaussian(R) 98 system (copyright 1998, Gaussian, Inc.),
 the Gaussian(R) 94 system (copyright 1995, Gaussian, Inc.),
 the Gaussian 92(TM) system (copyright 1992, Gaussian, Inc.),
 the Gaussian 90(TM) system (copyright 1990, Gaussian, Inc.),
 the Gaussian 88(TM) system (copyright 1988, Gaussian, Inc.),
 the Gaussian 86(TM) system (copyright 1986, Carnegie Mellon
 University), and the Gaussian 82(TM) system (copyright 1983,
 Carnegie Mellon University). Gaussian is a federally registered
 trademark of Gaussian, Inc.
  
 This software contains proprietary and confidential information,
 including trade secrets, belonging to Gaussian, Inc.
  
 This software is provided under written license and may be
 used, copied, transmitted, or stored only in accord with that
 written license.
  
 The following legend is applicable only to US Government
 contracts under FAR:
  
                    RESTRICTED RIGHTS LEGEND
  
 Use, reproduction and disclosure by the US Government is
 subject to restrictions as set forth in subparagraphs (a)
 and (c) of the Commercial Computer Software - Restricted
 Rights clause in FAR 52.227-19.
  
 Gaussian, Inc.
 340 Quinnipiac St., Bldg. 40, Wallingford CT 06492
  
  
 ---------------------------------------------------------------
 Warning -- This program may not be used in any manner that
 competes with the business of Gaussian, Inc. or will provide
 assistance to any competitor of Gaussian, Inc.  The licensee
 of this program is prohibited from giving any competitor of
 Gaussian, Inc. access to this program.  By using this program,
 the user acknowledges that Gaussian, Inc. is engaged in the
 business of creating and licensing software in the field of
 computational chemistry and represents and warrants to the
 licensee that it is not a competitor of Gaussian, Inc. and that
 it will not use this program in any manner prohibited above.
 ---------------------------------------------------------------
  

 Cite this work as:
 Gaussian 09, Revision D.01,
 M. J. Frisch, G. W. Trucks, H. B. Schlegel, G. E. Scuseria, 
 M. A. Robb, J. R. Cheeseman, G. Scalmani, V. Barone, B. Mennucci, 
 G. A. Petersson, H. Nakatsuji, M. Caricato, X. Li, H. P. Hratchian, 
 A. F. Izmaylov, J. Bloino, G. Zheng, J. L. Sonnenberg, M. Hada, 
 M. Ehara, K. Toyota, R. Fukuda, J. Hasegawa, M. Ishida, T. Nakajima, 
 Y. Honda, O. Kitao, H. Nakai, T. Vreven, J. A. Montgomery, Jr., 
 J. E. Peralta, F. Ogliaro, M. Bearpark, J. J. Heyd, E. Brothers, 
 K. N. Kudin, V. N. Staroverov, T. Keith, R. Kobayashi, J. Normand, 
 K. Raghavachari, A. Rendell, J. C. Burant, S. S. Iyengar, J. Tomasi, 
 M. Cossi, N. Rega, J. M. Millam, M. Klene, J. E. Knox, J. B. Cross, 
 V. Bakken, C. Adamo, J. Jaramillo, R. Gomperts, R. E. Stratmann, 
 O. Yazyev, A. J. Austin, R. Cammi, C. Pomelli, J. W. Ochterski, 
 R. L. Martin, K. Morokuma, V. G. Zakrzewski, G. A. Voth, 
 P. Salvador, J. J. Dannenberg, S. Dapprich, A. D. Daniels, 
 O. Farkas, J. B. Foresman, J. V. Ortiz, J. Cioslowski, 
 and D. J. Fox, Gaussian, Inc., Wallingford CT, 2013.
 
 ******************************************
 Gaussian 09:  IA32W-G09RevD.01 24-Apr-2013
                29-Mar-2026 
 ******************************************
 %chk=C:\Users\emman\Escritorio\quimica-enlaces\molecula\H2O.chk
 -------------------------------
 # b3lyp/3-21g geom=connectivity
 -------------------------------
 1/38=1,57=2/1;
 2/12=2,17=6,18=5,40=1/2;
 3/5=5,11=2,16=1,25=1,30=1,74=-5/1,2,3;
 4//1;
 5/5=2,38=5/2;
 6/7=2,8=2,9=2,10=2,28=1/1;
 99/5=1,9=1/99;
 -----------------------------------------------
 Title Card Required - Distancia +1.25A - Paso 5
 -----------------------------------------------
 Symbolic Z-matrix:
 Charge =  0 Multiplicity = 1
 C                    -2.07749  -0.63701  -0.01419 
 H                    -1.26791  -1.3307    0.07671 
 H                    -1.78519  -0.23363   0.93277 
 H                    -1.6622   -0.19109  -0.89373 
 H                    -2.75061  -1.44993  -0.19016 
 C                    -4.23835   1.12735   0.02845 
 H                    -4.89106   0.29646   0.19725 
 H                    -3.81572   1.63905   0.86776 
 H                    -3.97503   1.4874   -0.94414 
 H                    -5.08868   1.77642   0.05183 
 
                          Input orientation:                          
 ---------------------------------------------------------------------
 Center     Atomic      Atomic             Coordinates (Angstroms)
 Number     Number       Type             X           Y           Z
 ---------------------------------------------------------------------
      1          6           0       -2.077494   -0.637006   -0.014195
      2          1           0       -1.267909   -1.330697    0.076715
      3          1           0       -1.785190   -0.233634    0.932774
      4          1           0       -1.662202   -0.191086   -0.893733
      5          1           0       -2.750609   -1.449934   -0.190159
      6          6           0       -4.238348    1.127349    0.028446
      7          1           0       -4.891055    0.296459    0.197253
      8          1           0       -3.815721    1.639051    0.867759
      9          1           0       -3.975034    1.487403   -0.944142
     10          1           0       -5.088680    1.776415    0.051832
 ---------------------------------------------------------------------
                    Distance matrix (angstroms):
                    1          2          3          4          5
     1  C    0.000000
     2  H    1.070000   0.000000
     3  H    1.070000   1.484576   0.000000
     4  H    1.070000   1.547886   1.831137   0.000000
     5  H    1.070000   1.511237   1.916350   1.806750   0.000000
     6  C    2.789991   3.855882   2.947553   3.037303   2.983880
     7  H    2.971900   3.973582   3.235489   3.442883   2.789531
     8  H    2.996616   3.992055   2.763011   3.330150   3.434455
     9  H    2.996427   4.038857   3.358601   2.858156   3.270422
    10  H    3.859560   4.924739   3.966031   4.062746   3.991799
                    6          7          8          9         10
     6  C    0.000000
     7  H    1.070000   0.000000
     8  H    1.070000   1.846205   0.000000
     9  H    1.070000   1.886856   1.825203   0.000000
    10  H    1.070000   1.500157   1.518233   1.521742   0.000000
 Stoichiometry    C2H8
 Framework group  C1[X(C2H8)]
 Deg. of freedom    24
 Full point group                 C1      NOp   1
 Largest Abelian subgroup         C1      NOp   1
 Largest concise Abelian subgroup C1      NOp   1
                         Standard orientation:                         
 ---------------------------------------------------------------------
 Center     Atomic      Atomic             Coordinates (Angstroms)
 Number     Number       Type             X           Y           Z
 ---------------------------------------------------------------------
      1          6           0        1.395015    0.002502   -0.000263
      2          1           0        2.459236   -0.022617   -0.108445
      3          1           0        1.351124   -0.863064   -0.627773
      4          1           0        1.448964   -0.152564    1.057065
      5          1           0        1.390426    1.026466   -0.310709
      6          6           0       -1.394975    0.003122    0.002087
      7          1           0       -1.377964    0.874858   -0.618144
      8          1           0       -1.404672   -0.963986   -0.455633
      9          1           0       -1.402960    0.035526    1.071566
     10          1           0       -2.464390    0.031638   -0.018870
 ---------------------------------------------------------------------
 Rotational constants (GHZ):     72.9123112      6.8207215      6.8057970
 Standard basis: 3-21G (6D, 7F)
 There are    34 symmetry adapted cartesian basis functions of A   symmetry.
 There are    34 symmetry adapted basis functions of A   symmetry.
    34 basis functions,    54 primitive gaussians,    34 cartesian basis functions
    10 alpha electrons       10 beta electrons
       nuclear repulsion energy        44.8161049885 Hartrees.
 NAtoms=   10 NActive=   10 NUniq=   10 SFac= 1.00D+00 NAtFMM=   60 NAOKFM=F Big=F
 Integral buffers will be    262144 words long.
 Raffenetti 2 integral format.
 Two-electron integral symmetry is turned on.
 One-electron integrals computed using PRISM.
 NBasis=    34 RedAO= T EigKep=  2.75D-02  NBF=    34
 NBsUse=    34 1.00D-06 EigRej= -1.00D+00 NBFU=    34
 ExpMin= 1.83D-01 ExpMax= 1.72D+02 ExpMxC= 1.72D+02 IAcc=1 IRadAn=         1 AccDes= 0.00D+00
 Harris functional with IExCor=  402 and IRadAn=       1 diagonalized for initial guess.
 HarFok:  IExCor=  402 AccDes= 0.00D+00 IRadAn=         1 IDoV= 1 UseB2=F ITyADJ=14
 ICtDFT=  3500011 ScaDFX=  1.000000  1.000000  1.000000  1.000000
 FoFCou: FMM=F IPFlag=           0 FMFlag=      100000 FMFlg1=           0
         NFxFlg=           0 DoJE=T BraDBF=F KetDBF=T FulRan=T
         wScrn=  0.000000 ICntrl=     500 IOpCl=  0 I1Cent=   200000004 NGrid=           0
         NMat0=    1 NMatS0=      1 NMatT0=    0 NMatD0=    1 NMtDS0=    0 NMtDT0=    0
 Petite list used in FoFCou.
 Keep R1 ints in memory in canonical form, NReq=1056238.
 Requested convergence on RMS density matrix=1.00D-08 within 128 cycles.
 Requested convergence on MAX density matrix=1.00D-06.
 Requested convergence on             energy=1.00D-06.
 No special actions if energy rises.
 Integral accuracy reduced to 1.0D-05 until final iterations.
 Initial convergence to 1.0D-05 achieved.  Increase integral accuracy.
 SCF Done:  E(RB3LYP) =  -80.5076755600     A.U. after   11 cycles
            NFock= 11  Conv=0.52D-08     -V/T= 2.0054

 **********************************************************************

            Population analysis using the SCF density.

 **********************************************************************

 Orbital symmetries:
       Occupied  (A) (A) (A) (A) (A) (A) (A) (A) (A) (A)
       Virtual   (A) (A) (A) (A) (A) (A) (A) (A) (A) (A) (A) (A)
                 (A) (A) (A) (A) (A) (A) (A) (A) (A) (A) (A) (A)
 The electronic state is 1-A.
 Alpha  occ. eigenvalues --  -10.08360 -10.08325  -0.71340  -0.70377  -0.41868
 Alpha  occ. eigenvalues --   -0.41246  -0.39827  -0.39289  -0.34766  -0.29495
 Alpha virt. eigenvalues --    0.12142   0.15447   0.16042   0.19390   0.19985
 Alpha virt. eigenvalues --    0.21872   0.23181   0.24082   0.61742   0.67212
 Alpha virt. eigenvalues --    0.68597   0.77882   0.79133   0.93954   1.02139
 Alpha virt. eigenvalues --    1.06572   1.07556   1.11823   1.12171   1.12810
 Alpha virt. eigenvalues --    1.16875   1.18259   1.71956   1.86089
          Condensed to atoms (all electrons):
               1          2          3          4          5          6
     1  C    5.341893   0.293775   0.385904   0.380286   0.384909  -0.014394
     2  H    0.293775   0.702523  -0.063921  -0.051626  -0.059293   0.000841
     3  H    0.385904  -0.063921   0.513527  -0.020135  -0.011769  -0.001259
     4  H    0.380286  -0.051626  -0.020135   0.517302  -0.022778  -0.000343
     5  H    0.384909  -0.059293  -0.011769  -0.022778   0.511502  -0.000985
     6  C   -0.014394   0.000841  -0.001259  -0.000343  -0.000985   5.340594
     7  H   -0.001037   0.000074  -0.000130  -0.000029   0.000060   0.385500
     8  H   -0.000757   0.000048   0.000140  -0.000028  -0.000047   0.381660
     9  H   -0.000735   0.000057  -0.000076   0.000157  -0.000082   0.384434
    10  H    0.000844  -0.000021   0.000088   0.000028   0.000068   0.293212
               7          8          9         10
     1  C   -0.001037  -0.000757  -0.000735   0.000844
     2  H    0.000074   0.000048   0.000057  -0.000021
     3  H   -0.000130   0.000140  -0.000076   0.000088
     4  H   -0.000029  -0.000028   0.000157   0.000028
     5  H    0.000060  -0.000047  -0.000082   0.000068
     6  C    0.385500   0.381660   0.384434   0.293212
     7  H    0.512546  -0.018503  -0.014655  -0.061008
     8  H   -0.018503   0.518594  -0.020816  -0.056881
     9  H   -0.014655  -0.020816   0.511098  -0.057184
    10  H   -0.061008  -0.056881  -0.057184   0.703239
 Mulliken charges:
               1
     1  C   -0.770688
     2  H    0.177544
     3  H    0.197633
     4  H    0.197165
     5  H    0.198415
     6  C   -0.769260
     7  H    0.197183
     8  H    0.196591
     9  H    0.197801
    10  H    0.177615
 Sum of Mulliken charges =   0.00000
 Mulliken charges with hydrogens summed into heavy atoms:
               1
     1  C    0.000069
     6  C   -0.000069
 Electronic spatial extent (au):  <R**2>=            227.5315
 Charge=              0.0000 electrons
 Dipole moment (field-independent basis, Debye):
    X=              0.0007    Y=             -0.0129    Z=             -0.0399  Tot=              0.0420
 Quadrupole moment (field-independent basis, Debye-Ang):
   XX=            -14.8376   YY=            -15.6737   ZZ=            -15.9173
   XY=             -0.0261   XZ=             -0.0390   YZ=             -0.0021
 Traceless Quadrupole moment (field-independent basis, Debye-Ang):
   XX=              0.6386   YY=             -0.1975   ZZ=             -0.4411
   XY=             -0.0261   XZ=             -0.0390   YZ=             -0.0021
 Octapole moment (field-independent basis, Debye-Ang**2):
  XXX=             -0.0340  YYY=              0.1753  ZZZ=              1.4105  XYY=              0.2811
  XXY=             -0.0102  XXZ=             -0.1963  XZZ=             -0.2608  YZZ=             -0.1960
  YYZ=             -1.4167  XYZ=              0.2759
 Hexadecapole moment (field-independent basis, Debye-Ang**3):
 XXXX=           -254.5887 YYYY=            -28.5381 ZZZZ=            -28.3740 XXXY=             -0.1260
 XXXZ=             -0.1967 YYYX=              0.7881 YYYZ=              0.0657 ZZZX=             -0.0612
 ZZZY=             -0.0870 XXYY=            -43.7313 XXZZ=            -44.0768 YYZZ=             -9.5919
 XXYZ=             -0.0311 YYXZ=              0.1358 ZZXY=             -0.7387
 N-N= 4.481610498849D+01 E-N=-2.749701014466D+02  KE= 8.007194264204D+01
 1|1|UNPC-INANI_LAP|SP|RB3LYP|3-21G|C2H8|EMMAN|29-Mar-2026|0||# b3lyp/3
 -21g geom=connectivity||Title Card Required - Distancia +1.25A - Paso 
 5||0,1|C,0,-2.07749416,-0.63700562,-0.01419458|H,0,-1.26790947,-1.3306
 9728,0.07671479|H,0,-1.78518986,-0.23363379,0.93277394|H,0,-1.66220218
 ,-0.19108573,-0.89373311|H,0,-2.75060946,-1.44993395,-0.19015855|C,0,-
 4.23834765,1.12734863,0.02844557|H,0,-4.89105516,0.2964594,0.19725311|
 H,0,-3.81572125,1.63905078,0.86775949|H,0,-3.97503396,1.48740341,-0.94
 414193|H,0,-5.08868048,1.77641502,0.05183169||Version=IA32W-G09RevD.01
 |State=1-A|HF=-80.5076756|RMSD=5.243e-009|Dipole=-0.0011051,-0.0022206
 ,0.0163186|Quadrupole=0.2185937,0.0758607,-0.2944544,-0.3206854,0.0620
 755,0.0409679|PG=C01 [X(C2H8)]||@


 IF YOU BELIEVE CERTAIN WORDS, YOU BELIEVE THEIR HIDDEN ARGUMENTS.
 WHEN YOU BELIEVE SOMETHING IS RIGHT OR WRONG, TRUE OR FALSE, 
 YOU BELIEVE THE ASSUMPTIONS IN THE WORDS WHICH EXPRESS THE ARGUMENTS.
 SUCH ASSUMPTIONS ARE OFTEN FULL OF HOLES, BUT REMAIN MOST PRECIOUS 
 TO THE CONVINCED.

                 -- THE OPEN-ENDED PROOF FROM THE PANOPLIA PROPHETICA
                    CHILDREN OF DUNE BY FRANK HERBERT
 Job cpu time:       0 days  0 hours  0 minutes  3.0 seconds.
 File lengths (MBytes):  RWF=      5 Int=      0 D2E=      0 Chk=      1 Scr=      1
 Normal termination of Gaussian 09 at Sun Mar 29 02:37:04 2026.
