 Entering Link 1 = C:\G09W\l1.exe PID=     13468.
  
 Copyright (c) 1988,1990,1992,1993,1995,1998,2003,2009,2013,
            Gaussian, Inc.  All Rights Reserved.
  
 This is part of the Gaussian(R) 09 program.  It is based on
 the Gaussian(R) 03 system (copyright 2003, Gaussian, Inc.),
 the Gaussian(R) 98 system (copyright 1998, Gaussian, Inc.),
 the Gaussian(R) 94 system (copyright 1995, Gaussian, Inc.),
 the Gaussian 92(TM) system (copyright 1992, Gaussian, Inc.),
 the Gaussian 90(TM) system (copyright 1990, Gaussian, Inc.),
 the Gaussian 88(TM) system (copyright 1988, Gaussian, Inc.),
 the Gaussian 86(TM) system (copyright 1986, Carnegie Mellon
 University), and the Gaussian 82(TM) system (copyright 1983,
 Carnegie Mellon University). Gaussian is a federally registered
 trademark of Gaussian, Inc.
  
 This software contains proprietary and confidential information,
 including trade secrets, belonging to Gaussian, Inc.
  
 This software is provided under written license and may be
 used, copied, transmitted, or stored only in accord with that
 written license.
  
 The following legend is applicable only to US Government
 contracts under FAR:
  
                    RESTRICTED RIGHTS LEGEND
  
 Use, reproduction and disclosure by the US Government is
 subject to restrictions as set forth in subparagraphs (a)
 and (c) of the Commercial Computer Software - Restricted
 Rights clause in FAR 52.227-19.
  
 Gaussian, Inc.
 340 Quinnipiac St., Bldg. 40, Wallingford CT 06492
  
  
 ---------------------------------------------------------------
 Warning -- This program may not be used in any manner that
 competes with the business of Gaussian, Inc. or will provide
 assistance to any competitor of Gaussian, Inc.  The licensee
 of this program is prohibited from giving any competitor of
 Gaussian, Inc. access to this program.  By using this program,
 the user acknowledges that Gaussian, Inc. is engaged in the
 business of creating and licensing software in the field of
 computational chemistry and represents and warrants to the
 licensee that it is not a competitor of Gaussian, Inc. and that
 it will not use this program in any manner prohibited above.
 ---------------------------------------------------------------
  

 Cite this work as:
 Gaussian 09, Revision D.01,
 M. J. Frisch, G. W. Trucks, H. B. Schlegel, G. E. Scuseria, 
 M. A. Robb, J. R. Cheeseman, G. Scalmani, V. Barone, B. Mennucci, 
 G. A. Petersson, H. Nakatsuji, M. Caricato, X. Li, H. P. Hratchian, 
 A. F. Izmaylov, J. Bloino, G. Zheng, J. L. Sonnenberg, M. Hada, 
 M. Ehara, K. Toyota, R. Fukuda, J. Hasegawa, M. Ishida, T. Nakajima, 
 Y. Honda, O. Kitao, H. Nakai, T. Vreven, J. A. Montgomery, Jr., 
 J. E. Peralta, F. Ogliaro, M. Bearpark, J. J. Heyd, E. Brothers, 
 K. N. Kudin, V. N. Staroverov, T. Keith, R. Kobayashi, J. Normand, 
 K. Raghavachari, A. Rendell, J. C. Burant, S. S. Iyengar, J. Tomasi, 
 M. Cossi, N. Rega, J. M. Millam, M. Klene, J. E. Knox, J. B. Cross, 
 V. Bakken, C. Adamo, J. Jaramillo, R. Gomperts, R. E. Stratmann, 
 O. Yazyev, A. J. Austin, R. Cammi, C. Pomelli, J. W. Ochterski, 
 R. L. Martin, K. Morokuma, V. G. Zakrzewski, G. A. Voth, 
 P. Salvador, J. J. Dannenberg, S. Dapprich, A. D. Daniels, 
 O. Farkas, J. B. Foresman, J. V. Ortiz, J. Cioslowski, 
 and D. J. Fox, Gaussian, Inc., Wallingford CT, 2013.
 
 ******************************************
 Gaussian 09:  IA32W-G09RevD.01 24-Apr-2013
                29-Mar-2026 
 ******************************************
 %chk=C:\Users\emman\Escritorio\quimica-enlaces\molecula\H2O.chk
 -------------------------------
 # b3lyp/3-21g geom=connectivity
 -------------------------------
 1/38=1,57=2/1;
 2/12=2,17=6,18=5,40=1/2;
 3/5=5,11=2,16=1,25=1,30=1,74=-5/1,2,3;
 4//1;
 5/5=2,38=5/2;
 6/7=2,8=2,9=2,10=2,28=1/1;
 99/5=1,9=1/99;
 -----------------------------------------------
 Title Card Required - Distancia +1.00A - Paso 4
 -----------------------------------------------
 Symbolic Z-matrix:
 Charge =  0 Multiplicity = 1
 C                    -2.07749  -0.63701  -0.01419 
 H                    -1.26791  -1.3307    0.07671 
 H                    -1.78519  -0.23363   0.93277 
 H                    -1.6622   -0.19109  -0.89373 
 H                    -2.75061  -1.44993  -0.19016 
 C                    -4.04466   0.96934   0.02394 
 H                    -4.69737   0.13845   0.19275 
 H                    -3.62204   1.48105   0.86326 
 H                    -3.78135   1.3294   -0.94864 
 H                    -4.89499   1.61841   0.04733 
 
                          Input orientation:                          
 ---------------------------------------------------------------------
 Center     Atomic      Atomic             Coordinates (Angstroms)
 Number     Number       Type             X           Y           Z
 ---------------------------------------------------------------------
      1          6           0       -2.077494   -0.637006   -0.014195
      2          1           0       -1.267909   -1.330697    0.076715
      3          1           0       -1.785190   -0.233634    0.932774
      4          1           0       -1.662202   -0.191086   -0.893733
      5          1           0       -2.750609   -1.449934   -0.190159
      6          6           0       -4.044662    0.969344    0.023944
      7          1           0       -4.697369    0.138455    0.192751
      8          1           0       -3.622035    1.481046    0.863257
      9          1           0       -3.781348    1.329399   -0.948644
     10          1           0       -4.894995    1.618410    0.047330
 ---------------------------------------------------------------------
                    Distance matrix (angstroms):
                    1          2          3          4          5
     1  C    0.000000
     2  H    1.070000   0.000000
     3  H    1.070000   1.484576   0.000000
     4  H    1.070000   1.547886   1.831137   0.000000
     5  H    1.070000   1.511237   1.916350   1.806750   0.000000
     6  C    2.539992   3.606013   2.716310   2.804432   2.751966
     7  H    2.740057   3.732702   3.027684   3.240568   2.541549
     8  H    2.764357   3.750528   2.513754   3.118331   3.234148
     9  H    2.764608   3.800637   3.157127   2.608767   3.059806
    10  H    3.609570   4.674810   3.726253   3.822410   3.750936
                    6          7          8          9         10
     6  C    0.000000
     7  H    1.070000   0.000000
     8  H    1.070000   1.846205   0.000000
     9  H    1.070000   1.886856   1.825203   0.000000
    10  H    1.070000   1.500157   1.518233   1.521742   0.000000
 Stoichiometry    C2H8
 Framework group  C1[X(C2H8)]
 Deg. of freedom    24
 Full point group                 C1      NOp   1
 Largest Abelian subgroup         C1      NOp   1
 Largest concise Abelian subgroup C1      NOp   1
                         Standard orientation:                         
 ---------------------------------------------------------------------
 Center     Atomic      Atomic             Coordinates (Angstroms)
 Number     Number       Type             X           Y           Z
 ---------------------------------------------------------------------
      1          6           0        1.270015    0.002527   -0.000199
      2          1           0        2.334262   -0.022506   -0.108140
      3          1           0        1.226335   -0.863031   -0.627735
      4          1           0        1.323736   -0.152555    1.057139
      5          1           0        1.265417    1.026496   -0.310627
      6          6           0       -1.269976    0.003097    0.002023
      7          1           0       -1.252892    0.874846   -0.618188
      8          1           0       -1.279494   -0.964004   -0.455717
      9          1           0       -1.278206    0.035480    1.071501
     10          1           0       -2.339389    0.031530   -0.019176
 ---------------------------------------------------------------------
 Rotational constants (GHZ):     72.9124263      8.0378715      8.0171523
 Standard basis: 3-21G (6D, 7F)
 There are    34 symmetry adapted cartesian basis functions of A   symmetry.
 There are    34 symmetry adapted basis functions of A   symmetry.
    34 basis functions,    54 primitive gaussians,    34 cartesian basis functions
    10 alpha electrons       10 beta electrons
       nuclear repulsion energy        46.3125674313 Hartrees.
 NAtoms=   10 NActive=   10 NUniq=   10 SFac= 1.00D+00 NAtFMM=   60 NAOKFM=F Big=F
 Integral buffers will be    262144 words long.
 Raffenetti 2 integral format.
 Two-electron integral symmetry is turned on.
 One-electron integrals computed using PRISM.
 NBasis=    34 RedAO= T EigKep=  2.69D-02  NBF=    34
 NBsUse=    34 1.00D-06 EigRej= -1.00D+00 NBFU=    34
 ExpMin= 1.83D-01 ExpMax= 1.72D+02 ExpMxC= 1.72D+02 IAcc=1 IRadAn=         1 AccDes= 0.00D+00
 Harris functional with IExCor=  402 and IRadAn=       1 diagonalized for initial guess.
 HarFok:  IExCor=  402 AccDes= 0.00D+00 IRadAn=         1 IDoV= 1 UseB2=F ITyADJ=14
 ICtDFT=  3500011 ScaDFX=  1.000000  1.000000  1.000000  1.000000
 FoFCou: FMM=F IPFlag=           0 FMFlag=      100000 FMFlg1=           0
         NFxFlg=           0 DoJE=T BraDBF=F KetDBF=T FulRan=T
         wScrn=  0.000000 ICntrl=     500 IOpCl=  0 I1Cent=   200000004 NGrid=           0
         NMat0=    1 NMatS0=      1 NMatT0=    0 NMatD0=    1 NMtDS0=    0 NMtDT0=    0
 Petite list used in FoFCou.
 Keep R1 ints in memory in canonical form, NReq=1056238.
 Requested convergence on RMS density matrix=1.00D-08 within 128 cycles.
 Requested convergence on MAX density matrix=1.00D-06.
 Requested convergence on             energy=1.00D-06.
 No special actions if energy rises.
 Integral accuracy reduced to 1.0D-05 until final iterations.
 Initial convergence to 1.0D-05 achieved.  Increase integral accuracy.
 SCF Done:  E(RB3LYP) =  -80.5002658049     A.U. after   11 cycles
            NFock= 11  Conv=0.14D-08     -V/T= 2.0048

 **********************************************************************

            Population analysis using the SCF density.

 **********************************************************************

 Orbital symmetries:
       Occupied  (A) (A) (A) (A) (A) (A) (A) (A) (A) (A)
       Virtual   (A) (A) (A) (A) (A) (A) (A) (A) (A) (A) (A) (A)
                 (A) (A) (A) (A) (A) (A) (A) (A) (A) (A) (A) (A)
 The electronic state is 1-A.
 Alpha  occ. eigenvalues --  -10.08186 -10.08138  -0.71589  -0.69895  -0.42121
 Alpha  occ. eigenvalues --   -0.41423  -0.39466  -0.38878  -0.35757  -0.28010
 Alpha virt. eigenvalues --    0.11314   0.15982   0.16728   0.18908   0.19483
 Alpha virt. eigenvalues --    0.23166   0.23925   0.24854   0.65234   0.66978
 Alpha virt. eigenvalues --    0.68418   0.78938   0.80174   0.96512   1.05305
 Alpha virt. eigenvalues --    1.06753   1.07746   1.12450   1.13364   1.14170
 Alpha virt. eigenvalues --    1.17200   1.19487   1.69953   1.94490
          Condensed to atoms (all electrons):
               1          2          3          4          5          6
     1  C    5.367547   0.291576   0.389073   0.381808   0.387698  -0.041174
     2  H    0.291576   0.707373  -0.063944  -0.050847  -0.059159   0.002342
     3  H    0.389073  -0.063944   0.514117  -0.020555  -0.012066  -0.004569
     4  H    0.381808  -0.050847  -0.020555   0.516929  -0.023148  -0.002029
     5  H    0.387698  -0.059159  -0.012066  -0.023148   0.511870  -0.003790
     6  C   -0.041174   0.002342  -0.004569  -0.002029  -0.003790   5.366338
     7  H   -0.003984   0.000228  -0.000425  -0.000082  -0.000664   0.388417
     8  H   -0.003195   0.000158  -0.000537  -0.000118  -0.000131   0.383974
     9  H   -0.003112   0.000176  -0.000216  -0.000227  -0.000284   0.386697
    10  H    0.002346  -0.000061   0.000266   0.000099   0.000210   0.290967
               7          8          9         10
     1  C   -0.003984  -0.003195  -0.003112   0.002346
     2  H    0.000228   0.000158   0.000176  -0.000061
     3  H   -0.000425  -0.000537  -0.000216   0.000266
     4  H   -0.000082  -0.000118  -0.000227   0.000099
     5  H   -0.000664  -0.000131  -0.000284   0.000210
     6  C    0.388417   0.383974   0.386697   0.290967
     7  H    0.512952  -0.018855  -0.014975  -0.060920
     8  H   -0.018855   0.518635  -0.021203  -0.056374
     9  H   -0.014975  -0.021203   0.511089  -0.056888
    10  H   -0.060920  -0.056374  -0.056888   0.708145
 Mulliken charges:
               1
     1  C   -0.768583
     2  H    0.172158
     3  H    0.198857
     4  H    0.198170
     5  H    0.199465
     6  C   -0.767173
     7  H    0.198309
     8  H    0.197645
     9  H    0.198943
    10  H    0.172210
 Sum of Mulliken charges =   0.00000
 Mulliken charges with hydrogens summed into heavy atoms:
               1
     1  C    0.000067
     6  C   -0.000067
 Electronic spatial extent (au):  <R**2>=            202.4327
 Charge=              0.0000 electrons
 Dipole moment (field-independent basis, Debye):
    X=              0.0011    Y=             -0.0126    Z=             -0.0377  Tot=              0.0397
 Quadrupole moment (field-independent basis, Debye-Ang):
   XX=            -15.6545   YY=            -15.6718   ZZ=            -15.9142
   XY=             -0.0208   XZ=             -0.0311   YZ=             -0.0020
 Traceless Quadrupole moment (field-independent basis, Debye-Ang):
   XX=              0.0923   YY=              0.0750   ZZ=             -0.1674
   XY=             -0.0208   XZ=             -0.0311   YZ=             -0.0020
 Octapole moment (field-independent basis, Debye-Ang**2):
  XXX=             -0.0244  YYY=              0.1756  ZZZ=              1.4081  XYY=              0.2544
  XXY=             -0.0098  XXZ=             -0.1502  XZZ=             -0.2363  YZZ=             -0.1954
  YYZ=             -1.4130  XYZ=              0.2484
 Hexadecapole moment (field-independent basis, Debye-Ang**3):
 XXXX=           -222.2835 YYYY=            -28.5174 ZZZZ=            -28.3543 XXXY=             -0.0878
 XXXZ=             -0.1359 YYYX=              0.7216 YYYZ=              0.0656 ZZZX=             -0.0467
 ZZZY=             -0.0869 XXYY=            -38.4639 XXZZ=            -38.7228 YYZZ=             -9.5855
 XXYZ=             -0.0285 YYXZ=              0.1264 ZZXY=             -0.6686
 N-N= 4.631256743133D+01 E-N=-2.780165043956D+02  KE= 8.011824173066D+01
 1|1|UNPC-INANI_LAP|SP|RB3LYP|3-21G|C2H8|EMMAN|29-Mar-2026|0||# b3lyp/3
 -21g geom=connectivity||Title Card Required - Distancia +1.00A - Paso 
 4||0,1|C,0,-2.07749416,-0.63700562,-0.01419458|H,0,-1.26790947,-1.3306
 9728,0.07671479|H,0,-1.78518986,-0.23363379,0.93277394|H,0,-1.66220218
 ,-0.19108573,-0.89373311|H,0,-2.75060946,-1.44993395,-0.19015855|C,0,-
 4.04466177,0.96934384,0.02394355|H,0,-4.69736928,0.13845461,0.19275109
 |H,0,-3.62203537,1.48104599,0.86325747|H,0,-3.78134808,1.32939862,-0.9
 4864395|H,0,-4.8949946,1.61841023,0.04732967||Version=IA32W-G09RevD.01
 |State=1-A|HF=-80.5002658|RMSD=1.398e-009|Dipole=-0.0008088,-0.0020666
 ,0.0154768|Quadrupole=0.0549298,0.0360782,-0.091008,-0.0225573,0.06407
 45,0.0389074|PG=C01 [X(C2H8)]||@


 IF YOU BELIEVE CERTAIN WORDS, YOU BELIEVE THEIR HIDDEN ARGUMENTS.
 WHEN YOU BELIEVE SOMETHING IS RIGHT OR WRONG, TRUE OR FALSE, 
 YOU BELIEVE THE ASSUMPTIONS IN THE WORDS WHICH EXPRESS THE ARGUMENTS.
 SUCH ASSUMPTIONS ARE OFTEN FULL OF HOLES, BUT REMAIN MOST PRECIOUS 
 TO THE CONVINCED.

                 -- THE OPEN-ENDED PROOF FROM THE PANOPLIA PROPHETICA
                    CHILDREN OF DUNE BY FRANK HERBERT
 Job cpu time:       0 days  0 hours  0 minutes  3.0 seconds.
 File lengths (MBytes):  RWF=      5 Int=      0 D2E=      0 Chk=      1 Scr=      1
 Normal termination of Gaussian 09 at Sun Mar 29 02:37:01 2026.
