 Entering Link 1 = C:\G09W\l1.exe PID=      1360.
  
 Copyright (c) 1988,1990,1992,1993,1995,1998,2003,2009,2013,
            Gaussian, Inc.  All Rights Reserved.
  
 This is part of the Gaussian(R) 09 program.  It is based on
 the Gaussian(R) 03 system (copyright 2003, Gaussian, Inc.),
 the Gaussian(R) 98 system (copyright 1998, Gaussian, Inc.),
 the Gaussian(R) 94 system (copyright 1995, Gaussian, Inc.),
 the Gaussian 92(TM) system (copyright 1992, Gaussian, Inc.),
 the Gaussian 90(TM) system (copyright 1990, Gaussian, Inc.),
 the Gaussian 88(TM) system (copyright 1988, Gaussian, Inc.),
 the Gaussian 86(TM) system (copyright 1986, Carnegie Mellon
 University), and the Gaussian 82(TM) system (copyright 1983,
 Carnegie Mellon University). Gaussian is a federally registered
 trademark of Gaussian, Inc.
  
 This software contains proprietary and confidential information,
 including trade secrets, belonging to Gaussian, Inc.
  
 This software is provided under written license and may be
 used, copied, transmitted, or stored only in accord with that
 written license.
  
 The following legend is applicable only to US Government
 contracts under FAR:
  
                    RESTRICTED RIGHTS LEGEND
  
 Use, reproduction and disclosure by the US Government is
 subject to restrictions as set forth in subparagraphs (a)
 and (c) of the Commercial Computer Software - Restricted
 Rights clause in FAR 52.227-19.
  
 Gaussian, Inc.
 340 Quinnipiac St., Bldg. 40, Wallingford CT 06492
  
  
 ---------------------------------------------------------------
 Warning -- This program may not be used in any manner that
 competes with the business of Gaussian, Inc. or will provide
 assistance to any competitor of Gaussian, Inc.  The licensee
 of this program is prohibited from giving any competitor of
 Gaussian, Inc. access to this program.  By using this program,
 the user acknowledges that Gaussian, Inc. is engaged in the
 business of creating and licensing software in the field of
 computational chemistry and represents and warrants to the
 licensee that it is not a competitor of Gaussian, Inc. and that
 it will not use this program in any manner prohibited above.
 ---------------------------------------------------------------
  

 Cite this work as:
 Gaussian 09, Revision D.01,
 M. J. Frisch, G. W. Trucks, H. B. Schlegel, G. E. Scuseria, 
 M. A. Robb, J. R. Cheeseman, G. Scalmani, V. Barone, B. Mennucci, 
 G. A. Petersson, H. Nakatsuji, M. Caricato, X. Li, H. P. Hratchian, 
 A. F. Izmaylov, J. Bloino, G. Zheng, J. L. Sonnenberg, M. Hada, 
 M. Ehara, K. Toyota, R. Fukuda, J. Hasegawa, M. Ishida, T. Nakajima, 
 Y. Honda, O. Kitao, H. Nakai, T. Vreven, J. A. Montgomery, Jr., 
 J. E. Peralta, F. Ogliaro, M. Bearpark, J. J. Heyd, E. Brothers, 
 K. N. Kudin, V. N. Staroverov, T. Keith, R. Kobayashi, J. Normand, 
 K. Raghavachari, A. Rendell, J. C. Burant, S. S. Iyengar, J. Tomasi, 
 M. Cossi, N. Rega, J. M. Millam, M. Klene, J. E. Knox, J. B. Cross, 
 V. Bakken, C. Adamo, J. Jaramillo, R. Gomperts, R. E. Stratmann, 
 O. Yazyev, A. J. Austin, R. Cammi, C. Pomelli, J. W. Ochterski, 
 R. L. Martin, K. Morokuma, V. G. Zakrzewski, G. A. Voth, 
 P. Salvador, J. J. Dannenberg, S. Dapprich, A. D. Daniels, 
 O. Farkas, J. B. Foresman, J. V. Ortiz, J. Cioslowski, 
 and D. J. Fox, Gaussian, Inc., Wallingford CT, 2013.
 
 ******************************************
 Gaussian 09:  IA32W-G09RevD.01 24-Apr-2013
                29-Mar-2026 
 ******************************************
 %chk=C:\Users\emman\Escritorio\quimica-enlaces\molecula\H2O.chk
 -------------------------------
 # b3lyp/3-21g geom=connectivity
 -------------------------------
 1/38=1,57=2/1;
 2/12=2,17=6,18=5,40=1/2;
 3/5=5,11=2,16=1,25=1,30=1,74=-5/1,2,3;
 4//1;
 5/5=2,38=5/2;
 6/7=2,8=2,9=2,10=2,28=1/1;
 99/5=1,9=1/99;
 ------------------------------------------------
 Title Card Required - Distancia +2.75A - Paso 11
 ------------------------------------------------
 Symbolic Z-matrix:
 Charge =  0 Multiplicity = 1
 C                    -2.07749  -0.63701  -0.01419 
 H                    -1.26791  -1.3307    0.07671 
 H                    -1.78519  -0.23363   0.93277 
 H                    -1.6622   -0.19109  -0.89373 
 H                    -2.75061  -1.44993  -0.19016 
 C                    -5.40046   2.07538   0.05546 
 H                    -6.05317   1.24449   0.22427 
 H                    -4.97784   2.58708   0.89477 
 H                    -5.13715   2.43543  -0.91713 
 H                    -6.2508    2.72444   0.07884 
 
                          Input orientation:                          
 ---------------------------------------------------------------------
 Center     Atomic      Atomic             Coordinates (Angstroms)
 Number     Number       Type             X           Y           Z
 ---------------------------------------------------------------------
      1          6           0       -2.077494   -0.637006   -0.014195
      2          1           0       -1.267909   -1.330697    0.076715
      3          1           0       -1.785190   -0.233634    0.932774
      4          1           0       -1.662202   -0.191086   -0.893733
      5          1           0       -2.750609   -1.449934   -0.190159
      6          6           0       -5.400463    2.075377    0.055458
      7          1           0       -6.053170    1.244488    0.224265
      8          1           0       -4.977837    2.587080    0.894772
      9          1           0       -5.137149    2.435432   -0.917130
     10          1           0       -6.250796    2.724444    0.078844
 ---------------------------------------------------------------------
                    Distance matrix (angstroms):
                    1          2          3          4          5
     1  C    0.000000
     2  H    1.070000   0.000000
     3  H    1.070000   1.484576   0.000000
     4  H    1.070000   1.547886   1.831137   0.000000
     5  H    1.070000   1.511237   1.916350   1.806750   0.000000
     6  C    4.289988   5.355352   4.378518   4.473523   4.416998
     7  H    4.404870   5.436182   4.571924   4.753041   4.282355
     8  H    4.430906   5.457266   4.260383   4.680853   4.736570
     9  H    4.429069   5.490216   4.667086   4.355961   4.617373
    10  H    5.359519   6.424432   5.424118   5.522808   5.454273
                    6          7          8          9         10
     6  C    0.000000
     7  H    1.070000   0.000000
     8  H    1.070000   1.846205   0.000000
     9  H    1.070000   1.886856   1.825203   0.000000
    10  H    1.070000   1.500157   1.518233   1.521742   0.000000
 Stoichiometry    C2H8
 Framework group  C1[X(C2H8)]
 Deg. of freedom    24
 Full point group                 C1      NOp   1
 Largest Abelian subgroup         C1      NOp   1
 Largest concise Abelian subgroup C1      NOp   1
                         Standard orientation:                         
 ---------------------------------------------------------------------
 Center     Atomic      Atomic             Coordinates (Angstroms)
 Number     Number       Type             X           Y           Z
 ---------------------------------------------------------------------
      1          6           0        2.145014    0.002413   -0.000491
      2          1           0        3.209149   -0.022978   -0.109452
      3          1           0        2.100448   -0.863181   -0.627915
      4          1           0        2.199700   -0.152601    1.056807
      5          1           0        2.140454    1.026359   -0.310998
      6          6           0       -2.144972    0.003211    0.002315
      7          1           0       -2.128198    0.874905   -0.617983
      8          1           0       -2.155246   -0.963923   -0.455338
      9          1           0       -2.152164    0.035683    1.071798
     10          1           0       -3.214395    0.031993   -0.017859
 ---------------------------------------------------------------------
 Rotational constants (GHZ):     72.9119214      3.1108807      3.1077729
 Standard basis: 3-21G (6D, 7F)
 There are    34 symmetry adapted cartesian basis functions of A   symmetry.
 There are    34 symmetry adapted basis functions of A   symmetry.
    34 basis functions,    54 primitive gaussians,    34 cartesian basis functions
    10 alpha electrons       10 beta electrons
       nuclear repulsion energy        39.1978324417 Hartrees.
 NAtoms=   10 NActive=   10 NUniq=   10 SFac= 1.00D+00 NAtFMM=   60 NAOKFM=F Big=F
 Integral buffers will be    262144 words long.
 Raffenetti 2 integral format.
 Two-electron integral symmetry is turned on.
 One-electron integrals computed using PRISM.
 NBasis=    34 RedAO= T EigKep=  2.88D-02  NBF=    34
 NBsUse=    34 1.00D-06 EigRej= -1.00D+00 NBFU=    34
 ExpMin= 1.83D-01 ExpMax= 1.72D+02 ExpMxC= 1.72D+02 IAcc=1 IRadAn=         1 AccDes= 0.00D+00
 Harris functional with IExCor=  402 and IRadAn=       1 diagonalized for initial guess.
 HarFok:  IExCor=  402 AccDes= 0.00D+00 IRadAn=         1 IDoV= 1 UseB2=F ITyADJ=14
 ICtDFT=  3500011 ScaDFX=  1.000000  1.000000  1.000000  1.000000
 FoFCou: FMM=F IPFlag=           0 FMFlag=      100000 FMFlg1=           0
         NFxFlg=           0 DoJE=T BraDBF=F KetDBF=T FulRan=T
         wScrn=  0.000000 ICntrl=     500 IOpCl=  0 I1Cent=   200000004 NGrid=           0
         NMat0=    1 NMatS0=      1 NMatT0=    0 NMatD0=    1 NMtDS0=    0 NMtDT0=    0
 Petite list used in FoFCou.
 Keep R1 ints in memory in canonical form, NReq=1056238.
 Requested convergence on RMS density matrix=1.00D-08 within 128 cycles.
 Requested convergence on MAX density matrix=1.00D-06.
 Requested convergence on             energy=1.00D-06.
 No special actions if energy rises.
 Integral accuracy reduced to 1.0D-05 until final iterations.
 Initial convergence to 1.0D-05 achieved.  Increase integral accuracy.
 SCF Done:  E(RB3LYP) =  -80.5143106721     A.U. after   10 cycles
            NFock= 10  Conv=0.38D-08     -V/T= 2.0060

 **********************************************************************

            Population analysis using the SCF density.

 **********************************************************************

 Orbital symmetries:
       Occupied  (A) (A) (A) (A) (A) (A) (A) (A) (A) (A)
       Virtual   (A) (A) (A) (A) (A) (A) (A) (A) (A) (A) (A) (A)
                 (A) (A) (A) (A) (A) (A) (A) (A) (A) (A) (A) (A)
 The electronic state is 1-A.
 Alpha  occ. eigenvalues --  -10.08882 -10.08882  -0.71389  -0.71360  -0.42080
 Alpha  occ. eigenvalues --   -0.41591  -0.40445  -0.40017  -0.33069  -0.32612
 Alpha virt. eigenvalues --    0.13589   0.13914   0.16096   0.17867   0.20636
 Alpha virt. eigenvalues --    0.20925   0.21526   0.21900   0.65864   0.70461
 Alpha virt. eigenvalues --    0.71154   0.71967   0.73204   0.74329   0.98716
 Alpha virt. eigenvalues --    1.01162   1.07983   1.08375   1.09275   1.09725
 Alpha virt. eigenvalues --    1.16393   1.16486   1.75492   1.75756
          Condensed to atoms (all electrons):
               1          2          3          4          5          6
     1  C    5.347727   0.306901   0.381896   0.378127   0.381332   0.000265
     2  H    0.306901   0.669243  -0.061222  -0.050406  -0.056940   0.000001
     3  H    0.381896  -0.061222   0.509602  -0.019693  -0.011498   0.000019
     4  H    0.378127  -0.050406  -0.019693   0.513322  -0.022346   0.000010
     5  H    0.381332  -0.056940  -0.011498  -0.022346   0.507433   0.000015
     6  C    0.000265   0.000001   0.000019   0.000010   0.000015   5.346326
     7  H    0.000016   0.000000   0.000000   0.000000   0.000003   0.381770
     8  H    0.000013   0.000000   0.000004   0.000000   0.000000   0.378682
     9  H    0.000014   0.000000   0.000000   0.000002   0.000000   0.381333
    10  H    0.000001   0.000000   0.000000   0.000000   0.000000   0.306523
               7          8          9         10
     1  C    0.000016   0.000013   0.000014   0.000001
     2  H    0.000000   0.000000   0.000000   0.000000
     3  H    0.000000   0.000004   0.000000   0.000000
     4  H    0.000000   0.000000   0.000002   0.000000
     5  H    0.000003   0.000000   0.000000   0.000000
     6  C    0.381770   0.378682   0.381333   0.306523
     7  H    0.508629  -0.018168  -0.014307  -0.058558
     8  H   -0.018168   0.514633  -0.020390  -0.055123
     9  H   -0.014307  -0.020390   0.507069  -0.055079
    10  H   -0.058558  -0.055123  -0.055079   0.669618
 Mulliken charges:
               1
     1  C   -0.796292
     2  H    0.192423
     3  H    0.200892
     4  H    0.200984
     5  H    0.202000
     6  C   -0.794945
     7  H    0.200615
     8  H    0.200348
     9  H    0.201358
    10  H    0.192618
 Sum of Mulliken charges =   0.00000
 Mulliken charges with hydrogens summed into heavy atoms:
               1
     1  C    0.000006
     6  C   -0.000006
 Electronic spatial extent (au):  <R**2>=            426.1418
 Charge=              0.0000 electrons
 Dipole moment (field-independent basis, Debye):
    X=             -0.0014    Y=             -0.0139    Z=             -0.0469  Tot=              0.0489
 Quadrupole moment (field-independent basis, Debye-Ang):
   XX=            -11.5863   YY=            -15.6333   ZZ=            -15.8808
   XY=             -0.0462   XZ=             -0.0685   YZ=             -0.0019
 Traceless Quadrupole moment (field-independent basis, Debye-Ang):
   XX=              2.7805   YY=             -1.2665   ZZ=             -1.5140
   XY=             -0.0462   XZ=             -0.0685   YZ=             -0.0019
 Octapole moment (field-independent basis, Debye-Ang**2):
  XXX=             -0.0938  YYY=              0.1772  ZZZ=              1.4452  XYY=              0.4311
  XXY=             -0.0283  XXZ=             -0.4564  XZZ=             -0.4015  YZZ=             -0.2013
  YYZ=             -1.4513  XYZ=              0.4283
 Hexadecapole moment (field-independent basis, Debye-Ang**3):
 XXXX=           -504.0827 YYYY=            -28.4285 ZZZZ=            -28.2678 XXXY=             -0.4251
 XXXZ=             -0.6775 YYYX=              1.1927 YYYZ=              0.0669 ZZZX=             -0.1254
 ZZZY=             -0.0881 XXYY=            -86.2392 XXZZ=            -87.2231 YYZZ=             -9.5581
 XXYZ=             -0.0511 YYXZ=              0.1989 ZZXY=             -1.1438
 N-N= 3.919783244175D+01 E-N=-2.636038624688D+02  KE= 8.003270309608D+01
 1|1|UNPC-INANI_LAP|SP|RB3LYP|3-21G|C2H8|EMMAN|29-Mar-2026|0||# b3lyp/3
 -21g geom=connectivity||Title Card Required - Distancia +2.75A - Paso 
 11||0,1|C,0,-2.07749416,-0.63700562,-0.01419458|H,0,-1.26790947,-1.330
 69728,0.07671479|H,0,-1.78518986,-0.23363379,0.93277394|H,0,-1.6622021
 8,-0.19108573,-0.89373311|H,0,-2.75060946,-1.44993395,-0.19015855|C,0,
 -5.4004629,2.07537737,0.05545767|H,0,-6.05317041,1.24448814,0.22426521
 |H,0,-4.9778365,2.58707952,0.89477159|H,0,-5.13714921,2.43543215,-0.91
 712983|H,0,-6.25079573,2.72444376,0.07884379||Version=IA32W-G09RevD.01
 |State=1-A|HF=-80.5143107|RMSD=3.812e-009|Dipole=-0.0022439,-0.0024053
 ,0.0189702|Quadrupole=0.8603587,0.2313007,-1.0916594,-1.4897167,0.0514
 112,0.0511884|PG=C01 [X(C2H8)]||@


 IF YOU BELIEVE CERTAIN WORDS, YOU BELIEVE THEIR HIDDEN ARGUMENTS.
 WHEN YOU BELIEVE SOMETHING IS RIGHT OR WRONG, TRUE OR FALSE, 
 YOU BELIEVE THE ASSUMPTIONS IN THE WORDS WHICH EXPRESS THE ARGUMENTS.
 SUCH ASSUMPTIONS ARE OFTEN FULL OF HOLES, BUT REMAIN MOST PRECIOUS 
 TO THE CONVINCED.

                 -- THE OPEN-ENDED PROOF FROM THE PANOPLIA PROPHETICA
                    CHILDREN OF DUNE BY FRANK HERBERT
 Job cpu time:       0 days  0 hours  0 minutes  3.0 seconds.
 File lengths (MBytes):  RWF=      5 Int=      0 D2E=      0 Chk=      1 Scr=      1
 Normal termination of Gaussian 09 at Sun Mar 29 02:37:21 2026.
