 Entering Link 1 = C:\G09W\l1.exe PID=     13092.
  
 Copyright (c) 1988,1990,1992,1993,1995,1998,2003,2009,2013,
            Gaussian, Inc.  All Rights Reserved.
  
 This is part of the Gaussian(R) 09 program.  It is based on
 the Gaussian(R) 03 system (copyright 2003, Gaussian, Inc.),
 the Gaussian(R) 98 system (copyright 1998, Gaussian, Inc.),
 the Gaussian(R) 94 system (copyright 1995, Gaussian, Inc.),
 the Gaussian 92(TM) system (copyright 1992, Gaussian, Inc.),
 the Gaussian 90(TM) system (copyright 1990, Gaussian, Inc.),
 the Gaussian 88(TM) system (copyright 1988, Gaussian, Inc.),
 the Gaussian 86(TM) system (copyright 1986, Carnegie Mellon
 University), and the Gaussian 82(TM) system (copyright 1983,
 Carnegie Mellon University). Gaussian is a federally registered
 trademark of Gaussian, Inc.
  
 This software contains proprietary and confidential information,
 including trade secrets, belonging to Gaussian, Inc.
  
 This software is provided under written license and may be
 used, copied, transmitted, or stored only in accord with that
 written license.
  
 The following legend is applicable only to US Government
 contracts under FAR:
  
                    RESTRICTED RIGHTS LEGEND
  
 Use, reproduction and disclosure by the US Government is
 subject to restrictions as set forth in subparagraphs (a)
 and (c) of the Commercial Computer Software - Restricted
 Rights clause in FAR 52.227-19.
  
 Gaussian, Inc.
 340 Quinnipiac St., Bldg. 40, Wallingford CT 06492
  
  
 ---------------------------------------------------------------
 Warning -- This program may not be used in any manner that
 competes with the business of Gaussian, Inc. or will provide
 assistance to any competitor of Gaussian, Inc.  The licensee
 of this program is prohibited from giving any competitor of
 Gaussian, Inc. access to this program.  By using this program,
 the user acknowledges that Gaussian, Inc. is engaged in the
 business of creating and licensing software in the field of
 computational chemistry and represents and warrants to the
 licensee that it is not a competitor of Gaussian, Inc. and that
 it will not use this program in any manner prohibited above.
 ---------------------------------------------------------------
  

 Cite this work as:
 Gaussian 09, Revision D.01,
 M. J. Frisch, G. W. Trucks, H. B. Schlegel, G. E. Scuseria, 
 M. A. Robb, J. R. Cheeseman, G. Scalmani, V. Barone, B. Mennucci, 
 G. A. Petersson, H. Nakatsuji, M. Caricato, X. Li, H. P. Hratchian, 
 A. F. Izmaylov, J. Bloino, G. Zheng, J. L. Sonnenberg, M. Hada, 
 M. Ehara, K. Toyota, R. Fukuda, J. Hasegawa, M. Ishida, T. Nakajima, 
 Y. Honda, O. Kitao, H. Nakai, T. Vreven, J. A. Montgomery, Jr., 
 J. E. Peralta, F. Ogliaro, M. Bearpark, J. J. Heyd, E. Brothers, 
 K. N. Kudin, V. N. Staroverov, T. Keith, R. Kobayashi, J. Normand, 
 K. Raghavachari, A. Rendell, J. C. Burant, S. S. Iyengar, J. Tomasi, 
 M. Cossi, N. Rega, J. M. Millam, M. Klene, J. E. Knox, J. B. Cross, 
 V. Bakken, C. Adamo, J. Jaramillo, R. Gomperts, R. E. Stratmann, 
 O. Yazyev, A. J. Austin, R. Cammi, C. Pomelli, J. W. Ochterski, 
 R. L. Martin, K. Morokuma, V. G. Zakrzewski, G. A. Voth, 
 P. Salvador, J. J. Dannenberg, S. Dapprich, A. D. Daniels, 
 O. Farkas, J. B. Foresman, J. V. Ortiz, J. Cioslowski, 
 and D. J. Fox, Gaussian, Inc., Wallingford CT, 2013.
 
 ******************************************
 Gaussian 09:  IA32W-G09RevD.01 24-Apr-2013
                29-Mar-2026 
 ******************************************
 %chk=C:\Users\emman\Escritorio\quimica-enlaces\molecula\H2O.chk
 -------------------------------
 # b3lyp/3-21g geom=connectivity
 -------------------------------
 1/38=1,57=2/1;
 2/12=2,17=6,18=5,40=1/2;
 3/5=5,11=2,16=1,25=1,30=1,74=-5/1,2,3;
 4//1;
 5/5=2,38=5/2;
 6/7=2,8=2,9=2,10=2,28=1/1;
 99/5=1,9=1/99;
 -----------------------------------------------
 Title Card Required - Distancia +0.25A - Paso 1
 -----------------------------------------------
 Symbolic Z-matrix:
 Charge =  0 Multiplicity = 1
 C                    -2.07749  -0.63701  -0.01419 
 H                    -1.26791  -1.3307    0.07671 
 H                    -1.78519  -0.23363   0.93277 
 H                    -1.6622   -0.19109  -0.89373 
 H                    -2.75061  -1.44993  -0.19016 
 C                    -3.4636    0.49533   0.01044 
 H                    -4.11631  -0.33556   0.17925 
 H                    -3.04098   1.00703   0.84975 
 H                    -3.20029   0.85538  -0.96215 
 H                    -4.31394   1.1444    0.03382 
 
                          Input orientation:                          
 ---------------------------------------------------------------------
 Center     Atomic      Atomic             Coordinates (Angstroms)
 Number     Number       Type             X           Y           Z
 ---------------------------------------------------------------------
      1          6           0       -2.077494   -0.637006   -0.014195
      2          1           0       -1.267909   -1.330697    0.076715
      3          1           0       -1.785190   -0.233634    0.932774
      4          1           0       -1.662202   -0.191086   -0.893733
      5          1           0       -2.750609   -1.449934   -0.190159
      6          6           0       -3.463604    0.495329    0.010438
      7          1           0       -4.116312   -0.335560    0.179245
      8          1           0       -3.040978    1.007032    0.849751
      9          1           0       -3.200290    0.855384   -0.962150
     10          1           0       -4.313937    1.144396    0.033824
 ---------------------------------------------------------------------
                    Distance matrix (angstroms):
                    1          2          3          4          5
     1  C    0.000000
     2  H    1.070000   0.000000
     3  H    1.070000   1.484576   0.000000
     4  H    1.070000   1.547886   1.831137   0.000000
     5  H    1.070000   1.511237   1.916350   1.806750   0.000000
     6  C    1.789997   2.856544   2.049187   2.129258   2.081502
     7  H    2.070040   3.018974   2.452004   2.682314   1.800953
     8  H    2.092262   3.034194   1.767243   2.525123   2.683730
     9  H    2.094402   3.097142   2.603691   1.861584   2.472383
    10  H    2.859611   3.925074   3.016892   3.110558   3.037220
                    6          7          8          9         10
     6  C    0.000000
     7  H    1.070000   0.000000
     8  H    1.070000   1.846205   0.000000
     9  H    1.070000   1.886856   1.825203   0.000000
    10  H    1.070000   1.500157   1.518233   1.521742   0.000000
 Stoichiometry    C2H8
 Framework group  C1[X(C2H8)]
 Deg. of freedom    24
 Full point group                 C1      NOp   1
 Largest Abelian subgroup         C1      NOp   1
 Largest concise Abelian subgroup C1      NOp   1
                         Standard orientation:                         
 ---------------------------------------------------------------------
 Center     Atomic      Atomic             Coordinates (Angstroms)
 Number     Number       Type             X           Y           Z
 ---------------------------------------------------------------------
      1          6           0        0.895015    0.002646    0.000105
      2          1           0        1.959400   -0.021934   -0.106575
      3          1           0        0.852439   -0.862869   -0.627566
      4          1           0        0.947546   -0.152515    1.057491
      5          1           0        0.890360    1.026644   -0.310230
      6          6           0       -0.894981    0.002977    0.001719
      7          1           0       -0.877523    0.874794   -0.618387
      8          1           0       -0.903554   -0.964083   -0.456125
      9          1           0       -0.904493    0.035253    1.071190
     10          1           0       -1.964379    0.030968   -0.020746
 ---------------------------------------------------------------------
 Rotational constants (GHZ):     72.9129986     14.3464771     14.2805875
 Standard basis: 3-21G (6D, 7F)
 There are    34 symmetry adapted cartesian basis functions of A   symmetry.
 There are    34 symmetry adapted basis functions of A   symmetry.
    34 basis functions,    54 primitive gaussians,    34 cartesian basis functions
    10 alpha electrons       10 beta electrons
       nuclear repulsion energy        52.8388977296 Hartrees.
 NAtoms=   10 NActive=   10 NUniq=   10 SFac= 1.00D+00 NAtFMM=   60 NAOKFM=F Big=F
 Integral buffers will be    262144 words long.
 Raffenetti 2 integral format.
 Two-electron integral symmetry is turned on.
 One-electron integrals computed using PRISM.
 NBasis=    34 RedAO= T EigKep=  1.48D-02  NBF=    34
 NBsUse=    34 1.00D-06 EigRej= -1.00D+00 NBFU=    34
 ExpMin= 1.83D-01 ExpMax= 1.72D+02 ExpMxC= 1.72D+02 IAcc=1 IRadAn=         1 AccDes= 0.00D+00
 Harris functional with IExCor=  402 and IRadAn=       1 diagonalized for initial guess.
 HarFok:  IExCor=  402 AccDes= 0.00D+00 IRadAn=         1 IDoV= 1 UseB2=F ITyADJ=14
 ICtDFT=  3500011 ScaDFX=  1.000000  1.000000  1.000000  1.000000
 FoFCou: FMM=F IPFlag=           0 FMFlag=      100000 FMFlg1=           0
         NFxFlg=           0 DoJE=T BraDBF=F KetDBF=T FulRan=T
         wScrn=  0.000000 ICntrl=     500 IOpCl=  0 I1Cent=   200000004 NGrid=           0
         NMat0=    1 NMatS0=      1 NMatT0=    0 NMatD0=    1 NMtDS0=    0 NMtDT0=    0
 Petite list used in FoFCou.
 Keep R1 ints in memory in canonical form, NReq=1056238.
 Requested convergence on RMS density matrix=1.00D-08 within 128 cycles.
 Requested convergence on MAX density matrix=1.00D-06.
 Requested convergence on             energy=1.00D-06.
 No special actions if energy rises.
 Integral accuracy reduced to 1.0D-05 until final iterations.
 Initial convergence to 1.0D-05 achieved.  Increase integral accuracy.
 SCF Done:  E(RB3LYP) =  -80.3711683468     A.U. after   11 cycles
            NFock= 11  Conv=0.42D-08     -V/T= 1.9964

 **********************************************************************

            Population analysis using the SCF density.

 **********************************************************************

 Orbital symmetries:
       Occupied  (A) (A) (A) (A) (A) (A) (A) (A) (A) (A)
       Virtual   (A) (A) (A) (A) (A) (A) (A) (A) (A) (A) (A) (A)
                 (A) (A) (A) (A) (A) (A) (A) (A) (A) (A) (A) (A)
 The electronic state is 1-A.
 Alpha  occ. eigenvalues --  -10.08137 -10.08119  -0.76826  -0.66931  -0.46695
 Alpha  occ. eigenvalues --   -0.45765  -0.42080  -0.36601  -0.36064  -0.18514
 Alpha virt. eigenvalues --    0.05232   0.15183   0.16119   0.18329   0.19322
 Alpha virt. eigenvalues --    0.27023   0.27853   0.32768   0.71080   0.72932
 Alpha virt. eigenvalues --    0.75009   0.77511   0.82958   0.95415   1.07855
 Alpha virt. eigenvalues --    1.08876   1.09303   1.11541   1.11944   1.16519
 Alpha virt. eigenvalues --    1.19937   1.31409   1.78874   2.18809
          Condensed to atoms (all electrons):
               1          2          3          4          5          6
     1  C    5.872457   0.242036   0.454903   0.420142   0.447275  -0.454262
     2  H    0.242036   0.769314  -0.079360  -0.050774  -0.070571   0.042332
     3  H    0.454903  -0.079360   0.537637  -0.018396  -0.007342  -0.082042
     4  H    0.420142  -0.050774  -0.018396   0.513800  -0.020887  -0.051267
     5  H    0.447275  -0.070571  -0.007342  -0.020887   0.528580  -0.073315
     6  C   -0.454262   0.042332  -0.082042  -0.051267  -0.073315   5.872369
     7  H   -0.076547   0.005220  -0.007033  -0.000402  -0.030090   0.449952
     8  H   -0.066193   0.003904  -0.029490  -0.002150  -0.000978   0.437052
     9  H   -0.064091   0.004114  -0.002503  -0.020793  -0.005099   0.436044
    10  H    0.042456  -0.001455   0.005816   0.002705   0.004818   0.241494
               7          8          9         10
     1  C   -0.076547  -0.066193  -0.064091   0.042456
     2  H    0.005220   0.003904   0.004114  -0.001455
     3  H   -0.007033  -0.029490  -0.002503   0.005816
     4  H   -0.000402  -0.002150  -0.020793   0.002705
     5  H   -0.030090  -0.000978  -0.005099   0.004818
     6  C    0.449952   0.437052   0.436044   0.241494
     7  H    0.532172  -0.015383  -0.011040  -0.073874
     8  H   -0.015383   0.527404  -0.018571  -0.062050
     9  H   -0.011040  -0.018571   0.517971  -0.065189
    10  H   -0.073874  -0.062050  -0.065189   0.770065
 Mulliken charges:
               1
     1  C   -0.818177
     2  H    0.135239
     3  H    0.227810
     4  H    0.228021
     5  H    0.227610
     6  C   -0.818356
     7  H    0.227026
     8  H    0.226456
     9  H    0.229157
    10  H    0.135214
 Sum of Mulliken charges =   0.00000
 Mulliken charges with hydrogens summed into heavy atoms:
               1
     1  C    0.000503
     6  C   -0.000503
 Electronic spatial extent (au):  <R**2>=            141.4615
 Charge=              0.0000 electrons
 Dipole moment (field-independent basis, Debye):
    X=              0.0043    Y=             -0.0150    Z=             -0.0036  Tot=              0.0160
 Quadrupole moment (field-independent basis, Debye-Ang):
   XX=            -19.8755   YY=            -15.4173   ZZ=            -15.6393
   XY=              0.0092   XZ=              0.0182   YZ=             -0.0019
 Traceless Quadrupole moment (field-independent basis, Debye-Ang):
   XX=             -2.8982   YY=              1.5601   ZZ=              1.3381
   XY=              0.0092   XZ=              0.0182   YZ=             -0.0019
 Octapole moment (field-independent basis, Debye-Ang**2):
  XXX=              0.0170  YYY=              0.1821  ZZZ=              1.5750  XYY=              0.1487
  XXY=             -0.0248  XXZ=              0.0523  XZZ=             -0.1395  YZZ=             -0.2133
  YYZ=             -1.4984  XYZ=              0.1355
 Hexadecapole moment (field-independent basis, Debye-Ang**3):
 XXXX=           -148.8881 YYYY=            -27.6855 ZZZZ=            -27.4883 XXXY=              0.0783
 XXXZ=              0.1312 YYYX=              0.5010 YYYZ=              0.0678 ZZZX=              0.0381
 ZZZY=             -0.0892 XXYY=            -26.3281 XXZZ=            -26.3238 YYZZ=             -9.3184
 XXYZ=             -0.0254 YYXZ=              0.1037 ZZXY=             -0.4113
 N-N= 5.283889772956D+01 E-N=-2.912511709168D+02  KE= 8.066410900751D+01
 1|1|UNPC-INANI_LAP|SP|RB3LYP|3-21G|C2H8|EMMAN|29-Mar-2026|0||# b3lyp/3
 -21g geom=connectivity||Title Card Required - Distancia +0.25A - Paso 
 1||0,1|C,0,-2.07749416,-0.63700562,-0.01419458|H,0,-1.26790947,-1.3306
 9728,0.07671479|H,0,-1.78518986,-0.23363379,0.93277394|H,0,-1.66220218
 ,-0.19108573,-0.89373311|H,0,-2.75060946,-1.44993395,-0.19015855|C,0,-
 3.46360415,0.49532947,0.0104375|H,0,-4.11631166,-0.33555976,0.17924504
 |H,0,-3.04097775,1.00703162,0.84975142|H,0,-3.20029046,0.85538425,-0.9
 6215|H,0,-4.31393698,1.14439586,0.03382362||Version=IA32W-G09RevD.01|S
 tate=1-A|HF=-80.3711683|RMSD=4.196e-009|Dipole=0.0043184,0.0025161,0.0
 038541|Quadrupole=-0.8403826,-0.1855253,1.0259079,1.6085379,0.0652824,
 0.0302777|PG=C01 [X(C2H8)]||@


 IF YOU BELIEVE CERTAIN WORDS, YOU BELIEVE THEIR HIDDEN ARGUMENTS.
 WHEN YOU BELIEVE SOMETHING IS RIGHT OR WRONG, TRUE OR FALSE, 
 YOU BELIEVE THE ASSUMPTIONS IN THE WORDS WHICH EXPRESS THE ARGUMENTS.
 SUCH ASSUMPTIONS ARE OFTEN FULL OF HOLES, BUT REMAIN MOST PRECIOUS 
 TO THE CONVINCED.

                 -- THE OPEN-ENDED PROOF FROM THE PANOPLIA PROPHETICA
                    CHILDREN OF DUNE BY FRANK HERBERT
 Job cpu time:       0 days  0 hours  0 minutes  5.0 seconds.
 File lengths (MBytes):  RWF=      5 Int=      0 D2E=      0 Chk=      1 Scr=      1
 Normal termination of Gaussian 09 at Sun Mar 29 02:36:54 2026.
