 Entering Link 1 = C:\G09W\l1.exe PID=     15940.
  
 Copyright (c) 1988,1990,1992,1993,1995,1998,2003,2009,2013,
            Gaussian, Inc.  All Rights Reserved.
  
 This is part of the Gaussian(R) 09 program.  It is based on
 the Gaussian(R) 03 system (copyright 2003, Gaussian, Inc.),
 the Gaussian(R) 98 system (copyright 1998, Gaussian, Inc.),
 the Gaussian(R) 94 system (copyright 1995, Gaussian, Inc.),
 the Gaussian 92(TM) system (copyright 1992, Gaussian, Inc.),
 the Gaussian 90(TM) system (copyright 1990, Gaussian, Inc.),
 the Gaussian 88(TM) system (copyright 1988, Gaussian, Inc.),
 the Gaussian 86(TM) system (copyright 1986, Carnegie Mellon
 University), and the Gaussian 82(TM) system (copyright 1983,
 Carnegie Mellon University). Gaussian is a federally registered
 trademark of Gaussian, Inc.
  
 This software contains proprietary and confidential information,
 including trade secrets, belonging to Gaussian, Inc.
  
 This software is provided under written license and may be
 used, copied, transmitted, or stored only in accord with that
 written license.
  
 The following legend is applicable only to US Government
 contracts under FAR:
  
                    RESTRICTED RIGHTS LEGEND
  
 Use, reproduction and disclosure by the US Government is
 subject to restrictions as set forth in subparagraphs (a)
 and (c) of the Commercial Computer Software - Restricted
 Rights clause in FAR 52.227-19.
  
 Gaussian, Inc.
 340 Quinnipiac St., Bldg. 40, Wallingford CT 06492
  
  
 ---------------------------------------------------------------
 Warning -- This program may not be used in any manner that
 competes with the business of Gaussian, Inc. or will provide
 assistance to any competitor of Gaussian, Inc.  The licensee
 of this program is prohibited from giving any competitor of
 Gaussian, Inc. access to this program.  By using this program,
 the user acknowledges that Gaussian, Inc. is engaged in the
 business of creating and licensing software in the field of
 computational chemistry and represents and warrants to the
 licensee that it is not a competitor of Gaussian, Inc. and that
 it will not use this program in any manner prohibited above.
 ---------------------------------------------------------------
  

 Cite this work as:
 Gaussian 09, Revision D.01,
 M. J. Frisch, G. W. Trucks, H. B. Schlegel, G. E. Scuseria, 
 M. A. Robb, J. R. Cheeseman, G. Scalmani, V. Barone, B. Mennucci, 
 G. A. Petersson, H. Nakatsuji, M. Caricato, X. Li, H. P. Hratchian, 
 A. F. Izmaylov, J. Bloino, G. Zheng, J. L. Sonnenberg, M. Hada, 
 M. Ehara, K. Toyota, R. Fukuda, J. Hasegawa, M. Ishida, T. Nakajima, 
 Y. Honda, O. Kitao, H. Nakai, T. Vreven, J. A. Montgomery, Jr., 
 J. E. Peralta, F. Ogliaro, M. Bearpark, J. J. Heyd, E. Brothers, 
 K. N. Kudin, V. N. Staroverov, T. Keith, R. Kobayashi, J. Normand, 
 K. Raghavachari, A. Rendell, J. C. Burant, S. S. Iyengar, J. Tomasi, 
 M. Cossi, N. Rega, J. M. Millam, M. Klene, J. E. Knox, J. B. Cross, 
 V. Bakken, C. Adamo, J. Jaramillo, R. Gomperts, R. E. Stratmann, 
 O. Yazyev, A. J. Austin, R. Cammi, C. Pomelli, J. W. Ochterski, 
 R. L. Martin, K. Morokuma, V. G. Zakrzewski, G. A. Voth, 
 P. Salvador, J. J. Dannenberg, S. Dapprich, A. D. Daniels, 
 O. Farkas, J. B. Foresman, J. V. Ortiz, J. Cioslowski, 
 and D. J. Fox, Gaussian, Inc., Wallingford CT, 2013.
 
 ******************************************
 Gaussian 09:  IA32W-G09RevD.01 24-Apr-2013
                29-Mar-2026 
 ******************************************
 %chk=C:\Users\emman\Escritorio\quimica-enlaces\molecula\H2O.chk
 -------------------------------
 # b3lyp/3-21g geom=connectivity
 -------------------------------
 1/38=1,57=2/1;
 2/12=2,17=6,18=5,40=1/2;
 3/5=5,11=2,16=1,25=1,30=1,74=-5/1,2,3;
 4//1;
 5/5=2,38=5/2;
 6/7=2,8=2,9=2,10=2,28=1/1;
 99/5=1,9=1/99;
 ------------------------------------------------
 Title Card Required - Distancia +2.50A - Paso 10
 ------------------------------------------------
 Symbolic Z-matrix:
 Charge =  0 Multiplicity = 1
 C                    -2.07749  -0.63701  -0.01419 
 H                    -1.26791  -1.3307    0.07671 
 H                    -1.78519  -0.23363   0.93277 
 H                    -1.6622   -0.19109  -0.89373 
 H                    -2.75061  -1.44993  -0.19016 
 C                    -5.20678   1.91737   0.05096 
 H                    -5.85948   1.08648   0.21976 
 H                    -4.78415   2.42907   0.89027 
 H                    -4.94346   2.27743  -0.92163 
 H                    -6.05711   2.56644   0.07434 
 
                          Input orientation:                          
 ---------------------------------------------------------------------
 Center     Atomic      Atomic             Coordinates (Angstroms)
 Number     Number       Type             X           Y           Z
 ---------------------------------------------------------------------
      1          6           0       -2.077494   -0.637006   -0.014195
      2          1           0       -1.267909   -1.330697    0.076715
      3          1           0       -1.785190   -0.233634    0.932774
      4          1           0       -1.662202   -0.191086   -0.893733
      5          1           0       -2.750609   -1.449934   -0.190159
      6          6           0       -5.206777    1.917373    0.050956
      7          1           0       -5.859485    1.086483    0.219763
      8          1           0       -4.784151    2.429075    0.890270
      9          1           0       -4.943463    2.277427   -0.921632
     10          1           0       -6.057110    2.566439    0.074342
 ---------------------------------------------------------------------
                    Distance matrix (angstroms):
                    1          2          3          4          5
     1  C    0.000000
     2  H    1.070000   0.000000
     3  H    1.070000   1.484576   0.000000
     4  H    1.070000   1.547886   1.831137   0.000000
     5  H    1.070000   1.511237   1.916350   1.806750   0.000000
     6  C    4.039988   5.105419   4.136628   4.231081   4.174883
     7  H    4.162764   5.190933   4.341770   4.526504   4.033181
     8  H    4.188662   5.211690   4.010684   4.449097   4.511022
     9  H    4.187021   5.246423   4.440601   4.106216   4.385987
    10  H    5.109524   6.174473   5.179441   5.277909   5.209046
                    6          7          8          9         10
     6  C    0.000000
     7  H    1.070000   0.000000
     8  H    1.070000   1.846205   0.000000
     9  H    1.070000   1.886856   1.825203   0.000000
    10  H    1.070000   1.500157   1.518233   1.521742   0.000000
 Stoichiometry    C2H8
 Framework group  C1[X(C2H8)]
 Deg. of freedom    24
 Full point group                 C1      NOp   1
 Largest Abelian subgroup         C1      NOp   1
 Largest concise Abelian subgroup C1      NOp   1
                         Standard orientation:                         
 ---------------------------------------------------------------------
 Center     Atomic      Atomic             Coordinates (Angstroms)
 Number     Number       Type             X           Y           Z
 ---------------------------------------------------------------------
      1          6           0        2.020014    0.002423   -0.000465
      2          1           0        3.084158   -0.022939   -0.109342
      3          1           0        1.975520   -0.863168   -0.627898
      4          1           0        2.074621   -0.152597    1.056837
      5          1           0        2.015451    1.026371   -0.310965
      6          6           0       -2.019973    0.003201    0.002288
      7          1           0       -2.003173    0.874899   -0.618002
      8          1           0       -2.030185   -0.963931   -0.455371
      9          1           0       -2.027250    0.035666    1.071771
     10          1           0       -3.089394    0.031955   -0.017970
 ---------------------------------------------------------------------
 Rotational constants (GHZ):     72.9119648      3.4800055      3.4761169
 Standard basis: 3-21G (6D, 7F)
 There are    34 symmetry adapted cartesian basis functions of A   symmetry.
 There are    34 symmetry adapted basis functions of A   symmetry.
    34 basis functions,    54 primitive gaussians,    34 cartesian basis functions
    10 alpha electrons       10 beta electrons
       nuclear repulsion energy        39.8685711620 Hartrees.
 NAtoms=   10 NActive=   10 NUniq=   10 SFac= 1.00D+00 NAtFMM=   60 NAOKFM=F Big=F
 Integral buffers will be    262144 words long.
 Raffenetti 2 integral format.
 Two-electron integral symmetry is turned on.
 One-electron integrals computed using PRISM.
 NBasis=    34 RedAO= T EigKep=  2.87D-02  NBF=    34
 NBsUse=    34 1.00D-06 EigRej= -1.00D+00 NBFU=    34
 ExpMin= 1.83D-01 ExpMax= 1.72D+02 ExpMxC= 1.72D+02 IAcc=1 IRadAn=         1 AccDes= 0.00D+00
 Harris functional with IExCor=  402 and IRadAn=       1 diagonalized for initial guess.
 HarFok:  IExCor=  402 AccDes= 0.00D+00 IRadAn=         1 IDoV= 1 UseB2=F ITyADJ=14
 ICtDFT=  3500011 ScaDFX=  1.000000  1.000000  1.000000  1.000000
 FoFCou: FMM=F IPFlag=           0 FMFlag=      100000 FMFlg1=           0
         NFxFlg=           0 DoJE=T BraDBF=F KetDBF=T FulRan=T
         wScrn=  0.000000 ICntrl=     500 IOpCl=  0 I1Cent=   200000004 NGrid=           0
         NMat0=    1 NMatS0=      1 NMatT0=    0 NMatD0=    1 NMtDS0=    0 NMtDT0=    0
 Petite list used in FoFCou.
 Keep R1 ints in memory in canonical form, NReq=1056238.
 Requested convergence on RMS density matrix=1.00D-08 within 128 cycles.
 Requested convergence on MAX density matrix=1.00D-06.
 Requested convergence on             energy=1.00D-06.
 No special actions if energy rises.
 Integral accuracy reduced to 1.0D-05 until final iterations.
 Initial convergence to 1.0D-05 achieved.  Increase integral accuracy.
 SCF Done:  E(RB3LYP) =  -80.5142452985     A.U. after   10 cycles
            NFock= 10  Conv=0.34D-08     -V/T= 2.0060

 **********************************************************************

            Population analysis using the SCF density.

 **********************************************************************

 Orbital symmetries:
       Occupied  (A) (A) (A) (A) (A) (A) (A) (A) (A) (A)
       Virtual   (A) (A) (A) (A) (A) (A) (A) (A) (A) (A) (A) (A)
                 (A) (A) (A) (A) (A) (A) (A) (A) (A) (A) (A) (A)
 The electronic state is 1-A.
 Alpha  occ. eigenvalues --  -10.08836 -10.08834  -0.71350  -0.71293  -0.42027
 Alpha  occ. eigenvalues --   -0.41537  -0.40390  -0.39963  -0.33136  -0.32416
 Alpha virt. eigenvalues --    0.13530   0.14065   0.15755   0.18307   0.20623
 Alpha virt. eigenvalues --    0.20977   0.21549   0.22034   0.64324   0.70380
 Alpha virt. eigenvalues --    0.71179   0.73338   0.74053   0.74500   0.98415
 Alpha virt. eigenvalues --    1.02087   1.07928   1.08423   1.09319   1.09912
 Alpha virt. eigenvalues --    1.16435   1.16543   1.75549   1.75812
          Condensed to atoms (all electrons):
               1          2          3          4          5          6
     1  C    5.346006   0.305808   0.382066   0.378247   0.381493   0.000631
     2  H    0.305808   0.671904  -0.061468  -0.050583  -0.057168   0.000003
     3  H    0.382066  -0.061468   0.509930  -0.019689  -0.011483   0.000047
     4  H    0.378247  -0.050583  -0.019689   0.513716  -0.022346   0.000026
     5  H    0.381493  -0.057168  -0.011483  -0.022346   0.507792   0.000037
     6  C    0.000631   0.000003   0.000047   0.000026   0.000037   5.344607
     7  H    0.000040   0.000001   0.000000   0.000000   0.000010   0.381934
     8  H    0.000033   0.000000   0.000011   0.000000   0.000000   0.378827
     9  H    0.000035   0.000000   0.000000   0.000006   0.000000   0.381480
    10  H    0.000003   0.000000   0.000001   0.000000   0.000001   0.305417
               7          8          9         10
     1  C    0.000040   0.000033   0.000035   0.000003
     2  H    0.000001   0.000000   0.000000   0.000000
     3  H    0.000000   0.000011   0.000000   0.000001
     4  H    0.000000   0.000000   0.000006   0.000000
     5  H    0.000010   0.000000   0.000000   0.000001
     6  C    0.381934   0.378827   0.381480   0.305417
     7  H    0.508971  -0.018157  -0.014300  -0.058792
     8  H   -0.018157   0.515013  -0.020387  -0.055331
     9  H   -0.014300  -0.020387   0.507436  -0.055293
    10  H   -0.058792  -0.055331  -0.055293   0.672303
 Mulliken charges:
               1
     1  C   -0.794361
     2  H    0.191504
     3  H    0.200585
     4  H    0.200621
     5  H    0.201664
     6  C   -0.793009
     7  H    0.200294
     8  H    0.199990
     9  H    0.201022
    10  H    0.191691
 Sum of Mulliken charges =   0.00000
 Mulliken charges with hydrogens summed into heavy atoms:
               1
     1  C    0.000013
     6  C   -0.000013
 Electronic spatial extent (au):  <R**2>=            387.3781
 Charge=              0.0000 electrons
 Dipole moment (field-independent basis, Debye):
    X=             -0.0012    Y=             -0.0138    Z=             -0.0465  Tot=              0.0486
 Quadrupole moment (field-independent basis, Debye-Ang):
   XX=            -12.0237   YY=            -15.6367   ZZ=            -15.8840
   XY=             -0.0438   XZ=             -0.0652   YZ=             -0.0019
 Traceless Quadrupole moment (field-independent basis, Debye-Ang):
   XX=              2.4911   YY=             -1.1219   ZZ=             -1.3692
   XY=             -0.0438   XZ=             -0.0652   YZ=             -0.0019
 Octapole moment (field-independent basis, Debye-Ang**2):
  XXX=             -0.0851  YYY=              0.1770  ZZZ=              1.4427  XYY=              0.4064
  XXY=             -0.0237  XXZ=             -0.4148  XZZ=             -0.3782  YZZ=             -0.2010
  YYZ=             -1.4489  XYZ=              0.4033
 Hexadecapole moment (field-independent basis, Debye-Ang**3):
 XXXX=           -456.2111 YYYY=            -28.4383 ZZZZ=            -28.2773 XXXY=             -0.3703
 XXXZ=             -0.5899 YYYX=              1.1260 YYYZ=              0.0668 ZZZX=             -0.1159
 ZZZY=             -0.0881 XXYY=            -77.8936 XXZZ=            -78.7526 YYZZ=             -9.5611
 XXYZ=             -0.0476 YYXZ=              0.1882 ZZXY=             -1.0779
 N-N= 3.986857116200D+01 E-N=-2.649557955968D+02  KE= 8.003216448688D+01
 1|1|UNPC-INANI_LAP|SP|RB3LYP|3-21G|C2H8|EMMAN|29-Mar-2026|0||# b3lyp/3
 -21g geom=connectivity||Title Card Required - Distancia +2.50A - Paso 
 10||0,1|C,0,-2.07749416,-0.63700562,-0.01419458|H,0,-1.26790947,-1.330
 69728,0.07671479|H,0,-1.78518986,-0.23363379,0.93277394|H,0,-1.6622021
 8,-0.19108573,-0.89373311|H,0,-2.75060946,-1.44993395,-0.19015855|C,0,
 -5.20677702,1.91737258,0.05095565|H,0,-5.85948453,1.08648335,0.2197631
 9|H,0,-4.78415062,2.42907473,0.89026957|H,0,-4.94346333,2.27742736,-0.
 92163185|H,0,-6.05710985,2.56643897,0.07434177||Version=IA32W-G09RevD.
 01|State=1-A|HF=-80.5142453|RMSD=3.404e-009|Dipole=-0.00217,-0.0024209
 ,0.018827|Quadrupole=0.7737131,0.21035,-0.9840631,-1.3317867,0.0534596
 ,0.0494464|PG=C01 [X(C2H8)]||@


 IF YOU BELIEVE CERTAIN WORDS, YOU BELIEVE THEIR HIDDEN ARGUMENTS.
 WHEN YOU BELIEVE SOMETHING IS RIGHT OR WRONG, TRUE OR FALSE, 
 YOU BELIEVE THE ASSUMPTIONS IN THE WORDS WHICH EXPRESS THE ARGUMENTS.
 SUCH ASSUMPTIONS ARE OFTEN FULL OF HOLES, BUT REMAIN MOST PRECIOUS 
 TO THE CONVINCED.

                 -- THE OPEN-ENDED PROOF FROM THE PANOPLIA PROPHETICA
                    CHILDREN OF DUNE BY FRANK HERBERT
 Job cpu time:       0 days  0 hours  0 minutes  2.0 seconds.
 File lengths (MBytes):  RWF=      5 Int=      0 D2E=      0 Chk=      1 Scr=      1
 Normal termination of Gaussian 09 at Sun Mar 29 02:37:18 2026.
