 Entering Link 1 = C:\G09W\l1.exe PID=      7224.
  
 Copyright (c) 1988,1990,1992,1993,1995,1998,2003,2009,2013,
            Gaussian, Inc.  All Rights Reserved.
  
 This is part of the Gaussian(R) 09 program.  It is based on
 the Gaussian(R) 03 system (copyright 2003, Gaussian, Inc.),
 the Gaussian(R) 98 system (copyright 1998, Gaussian, Inc.),
 the Gaussian(R) 94 system (copyright 1995, Gaussian, Inc.),
 the Gaussian 92(TM) system (copyright 1992, Gaussian, Inc.),
 the Gaussian 90(TM) system (copyright 1990, Gaussian, Inc.),
 the Gaussian 88(TM) system (copyright 1988, Gaussian, Inc.),
 the Gaussian 86(TM) system (copyright 1986, Carnegie Mellon
 University), and the Gaussian 82(TM) system (copyright 1983,
 Carnegie Mellon University). Gaussian is a federally registered
 trademark of Gaussian, Inc.
  
 This software contains proprietary and confidential information,
 including trade secrets, belonging to Gaussian, Inc.
  
 This software is provided under written license and may be
 used, copied, transmitted, or stored only in accord with that
 written license.
  
 The following legend is applicable only to US Government
 contracts under FAR:
  
                    RESTRICTED RIGHTS LEGEND
  
 Use, reproduction and disclosure by the US Government is
 subject to restrictions as set forth in subparagraphs (a)
 and (c) of the Commercial Computer Software - Restricted
 Rights clause in FAR 52.227-19.
  
 Gaussian, Inc.
 340 Quinnipiac St., Bldg. 40, Wallingford CT 06492
  
  
 ---------------------------------------------------------------
 Warning -- This program may not be used in any manner that
 competes with the business of Gaussian, Inc. or will provide
 assistance to any competitor of Gaussian, Inc.  The licensee
 of this program is prohibited from giving any competitor of
 Gaussian, Inc. access to this program.  By using this program,
 the user acknowledges that Gaussian, Inc. is engaged in the
 business of creating and licensing software in the field of
 computational chemistry and represents and warrants to the
 licensee that it is not a competitor of Gaussian, Inc. and that
 it will not use this program in any manner prohibited above.
 ---------------------------------------------------------------
  

 Cite this work as:
 Gaussian 09, Revision D.01,
 M. J. Frisch, G. W. Trucks, H. B. Schlegel, G. E. Scuseria, 
 M. A. Robb, J. R. Cheeseman, G. Scalmani, V. Barone, B. Mennucci, 
 G. A. Petersson, H. Nakatsuji, M. Caricato, X. Li, H. P. Hratchian, 
 A. F. Izmaylov, J. Bloino, G. Zheng, J. L. Sonnenberg, M. Hada, 
 M. Ehara, K. Toyota, R. Fukuda, J. Hasegawa, M. Ishida, T. Nakajima, 
 Y. Honda, O. Kitao, H. Nakai, T. Vreven, J. A. Montgomery, Jr., 
 J. E. Peralta, F. Ogliaro, M. Bearpark, J. J. Heyd, E. Brothers, 
 K. N. Kudin, V. N. Staroverov, T. Keith, R. Kobayashi, J. Normand, 
 K. Raghavachari, A. Rendell, J. C. Burant, S. S. Iyengar, J. Tomasi, 
 M. Cossi, N. Rega, J. M. Millam, M. Klene, J. E. Knox, J. B. Cross, 
 V. Bakken, C. Adamo, J. Jaramillo, R. Gomperts, R. E. Stratmann, 
 O. Yazyev, A. J. Austin, R. Cammi, C. Pomelli, J. W. Ochterski, 
 R. L. Martin, K. Morokuma, V. G. Zakrzewski, G. A. Voth, 
 P. Salvador, J. J. Dannenberg, S. Dapprich, A. D. Daniels, 
 O. Farkas, J. B. Foresman, J. V. Ortiz, J. Cioslowski, 
 and D. J. Fox, Gaussian, Inc., Wallingford CT, 2013.
 
 ******************************************
 Gaussian 09:  IA32W-G09RevD.01 24-Apr-2013
                29-Mar-2026 
 ******************************************
 %chk=C:\Users\emman\Escritorio\quimica-enlaces\molecula\H2O.chk
 -------------------------------
 # b3lyp/3-21g geom=connectivity
 -------------------------------
 1/38=1,57=2/1;
 2/12=2,17=6,18=5,40=1/2;
 3/5=5,11=2,16=1,25=1,30=1,74=-5/1,2,3;
 4//1;
 5/5=2,38=5/2;
 6/7=2,8=2,9=2,10=2,28=1/1;
 99/5=1,9=1/99;
 -----------------------------------------------
 Title Card Required - Distancia +0.75A - Paso 3
 -----------------------------------------------
 Symbolic Z-matrix:
 Charge =  0 Multiplicity = 1
 C                    -2.07749  -0.63701  -0.01419 
 H                    -1.26791  -1.3307    0.07671 
 H                    -1.78519  -0.23363   0.93277 
 H                    -1.6622   -0.19109  -0.89373 
 H                    -2.75061  -1.44993  -0.19016 
 C                    -3.85098   0.81134   0.01944 
 H                    -4.50368  -0.01955   0.18825 
 H                    -3.42835   1.32304   0.85876 
 H                    -3.58766   1.17139  -0.95315 
 H                    -4.70131   1.46041   0.04283 
 
                          Input orientation:                          
 ---------------------------------------------------------------------
 Center     Atomic      Atomic             Coordinates (Angstroms)
 Number     Number       Type             X           Y           Z
 ---------------------------------------------------------------------
      1          6           0       -2.077494   -0.637006   -0.014195
      2          1           0       -1.267909   -1.330697    0.076715
      3          1           0       -1.785190   -0.233634    0.932774
      4          1           0       -1.662202   -0.191086   -0.893733
      5          1           0       -2.750609   -1.449934   -0.190159
      6          6           0       -3.850976    0.811339    0.019442
      7          1           0       -4.503683   -0.019550    0.188249
      8          1           0       -3.428350    1.323041    0.858755
      9          1           0       -3.587662    1.171394   -0.953146
     10          1           0       -4.701309    1.460405    0.042828
 ---------------------------------------------------------------------
                    Distance matrix (angstroms):
                    1          2          3          4          5
     1  C    0.000000
     2  H    1.070000   0.000000
     3  H    1.070000   1.484576   0.000000
     4  H    1.070000   1.547886   1.831137   0.000000
     5  H    1.070000   1.511237   1.916350   1.806750   0.000000
     6  C    2.289994   3.356163   2.488698   2.574776   2.523508
     7  H    2.511698   3.493105   2.826722   3.045345   2.294005
     8  H    2.535475   3.510188   2.264661   2.912572   3.041208
     9  H    2.536246   3.564032   2.963056   2.359508   2.855550
    10  H    3.359581   4.424888   3.487911   3.583398   3.511351
                    6          7          8          9         10
     6  C    0.000000
     7  H    1.070000   0.000000
     8  H    1.070000   1.846205   0.000000
     9  H    1.070000   1.886856   1.825203   0.000000
    10  H    1.070000   1.500157   1.518233   1.521742   0.000000
 Stoichiometry    C2H8
 Framework group  C1[X(C2H8)]
 Deg. of freedom    24
 Full point group                 C1      NOp   1
 Largest Abelian subgroup         C1      NOp   1
 Largest concise Abelian subgroup C1      NOp   1
                         Standard orientation:                         
 ---------------------------------------------------------------------
 Center     Atomic      Atomic             Coordinates (Angstroms)
 Number     Number       Type             X           Y           Z
 ---------------------------------------------------------------------
      1          6           0        1.145015    0.002558   -0.000121
      2          1           0        2.209296   -0.022366   -0.107754
      3          1           0        1.101603   -0.862989   -0.627690
      4          1           0        1.198446   -0.152544    1.057229
      5          1           0        1.140404    1.026534   -0.310525
      6          6           0       -1.144978    0.003066    0.001945
      7          1           0       -1.127801    0.874832   -0.618240
      8          1           0       -1.154265   -0.964025   -0.455821
      9          1           0       -1.153520    0.035423    1.071421
     10          1           0       -2.214386    0.031392   -0.019563
 ---------------------------------------------------------------------
 Rotational constants (GHZ):     72.9125699      9.5976087      9.5680811
 Standard basis: 3-21G (6D, 7F)
 There are    34 symmetry adapted cartesian basis functions of A   symmetry.
 There are    34 symmetry adapted basis functions of A   symmetry.
    34 basis functions,    54 primitive gaussians,    34 cartesian basis functions
    10 alpha electrons       10 beta electrons
       nuclear repulsion energy        48.0863920818 Hartrees.
 NAtoms=   10 NActive=   10 NUniq=   10 SFac= 1.00D+00 NAtFMM=   60 NAOKFM=F Big=F
 Integral buffers will be    262144 words long.
 Raffenetti 2 integral format.
 Two-electron integral symmetry is turned on.
 One-electron integrals computed using PRISM.
 NBasis=    34 RedAO= T EigKep=  2.59D-02  NBF=    34
 NBsUse=    34 1.00D-06 EigRej= -1.00D+00 NBFU=    34
 ExpMin= 1.83D-01 ExpMax= 1.72D+02 ExpMxC= 1.72D+02 IAcc=1 IRadAn=         1 AccDes= 0.00D+00
 Harris functional with IExCor=  402 and IRadAn=       1 diagonalized for initial guess.
 HarFok:  IExCor=  402 AccDes= 0.00D+00 IRadAn=         1 IDoV= 1 UseB2=F ITyADJ=14
 ICtDFT=  3500011 ScaDFX=  1.000000  1.000000  1.000000  1.000000
 FoFCou: FMM=F IPFlag=           0 FMFlag=      100000 FMFlg1=           0
         NFxFlg=           0 DoJE=T BraDBF=F KetDBF=T FulRan=T
         wScrn=  0.000000 ICntrl=     500 IOpCl=  0 I1Cent=   200000004 NGrid=           0
         NMat0=    1 NMatS0=      1 NMatT0=    0 NMatD0=    1 NMtDS0=    0 NMtDT0=    0
 Petite list used in FoFCou.
 Keep R1 ints in memory in canonical form, NReq=1056238.
 Requested convergence on RMS density matrix=1.00D-08 within 128 cycles.
 Requested convergence on MAX density matrix=1.00D-06.
 Requested convergence on             energy=1.00D-06.
 No special actions if energy rises.
 Integral accuracy reduced to 1.0D-05 until final iterations.
 Initial convergence to 1.0D-05 achieved.  Increase integral accuracy.
 SCF Done:  E(RB3LYP) =  -80.4838260281     A.U. after   11 cycles
            NFock= 11  Conv=0.12D-08     -V/T= 2.0034

 **********************************************************************

            Population analysis using the SCF density.

 **********************************************************************

 Orbital symmetries:
       Occupied  (A) (A) (A) (A) (A) (A) (A) (A) (A) (A)
       Virtual   (A) (A) (A) (A) (A) (A) (A) (A) (A) (A) (A) (A)
                 (A) (A) (A) (A) (A) (A) (A) (A) (A) (A) (A) (A)
 The electronic state is 1-A.
 Alpha  occ. eigenvalues --  -10.08013 -10.07963  -0.72217  -0.69200  -0.42762
 Alpha  occ. eigenvalues --   -0.41997  -0.38861  -0.38273  -0.37214  -0.25873
 Alpha virt. eigenvalues --    0.10025   0.16649   0.17359   0.18349   0.18812
 Alpha virt. eigenvalues --    0.24816   0.25103   0.25762   0.67598   0.69100
 Alpha virt. eigenvalues --    0.70272   0.79086   0.80338   0.96740   1.06961
 Alpha virt. eigenvalues --    1.08254   1.09502   1.12675   1.13415   1.16376
 Alpha virt. eigenvalues --    1.17780   1.21367   1.69181   2.04314
          Condensed to atoms (all electrons):
               1          2          3          4          5          6
     1  C    5.432219   0.287170   0.396339   0.385613   0.394173  -0.096496
     2  H    0.287170   0.713627  -0.064402  -0.049523  -0.059219   0.006242
     3  H    0.396339  -0.064402   0.514917  -0.020979  -0.012212  -0.013013
     4  H    0.385613  -0.049523  -0.020979   0.514972  -0.023497  -0.006952
     5  H    0.394173  -0.059219  -0.012212  -0.023497   0.511989  -0.011189
     6  C   -0.096496   0.006242  -0.013013  -0.006952  -0.011189   5.431172
     7  H   -0.011732   0.000688  -0.001202  -0.000193  -0.003304   0.395148
     8  H   -0.009824   0.000502  -0.003115  -0.000377  -0.000313   0.389553
     9  H   -0.009499   0.000536  -0.000550  -0.001927  -0.000839   0.391954
    10  H    0.006254  -0.000179   0.000786   0.000331   0.000635   0.286529
               7          8          9         10
     1  C   -0.011732  -0.009824  -0.009499   0.006254
     2  H    0.000688   0.000502   0.000536  -0.000179
     3  H   -0.001202  -0.003115  -0.000550   0.000786
     4  H   -0.000193  -0.000377  -0.001927   0.000331
     5  H   -0.003304  -0.000313  -0.000839   0.000635
     6  C    0.395148   0.389553   0.391954   0.286529
     7  H    0.513266  -0.019127  -0.015187  -0.061108
     8  H   -0.019127   0.517960  -0.021558  -0.055709
     9  H   -0.015187  -0.021558   0.510110  -0.056557
    10  H   -0.061108  -0.055709  -0.056557   0.714423
 Mulliken charges:
               1
     1  C   -0.774217
     2  H    0.164558
     3  H    0.203431
     4  H    0.202532
     5  H    0.203775
     6  C   -0.772949
     7  H    0.202750
     8  H    0.202007
     9  H    0.203517
    10  H    0.164594
 Sum of Mulliken charges =   0.00000
 Mulliken charges with hydrogens summed into heavy atoms:
               1
     1  C    0.000080
     6  C   -0.000080
 Electronic spatial extent (au):  <R**2>=            179.6803
 Charge=              0.0000 electrons
 Dipole moment (field-independent basis, Debye):
    X=              0.0017    Y=             -0.0126    Z=             -0.0333  Tot=              0.0357
 Quadrupole moment (field-independent basis, Debye-Ang):
   XX=            -16.6797   YY=            -15.6431   ZZ=            -15.8837
   XY=             -0.0137   XZ=             -0.0203   YZ=             -0.0020
 Traceless Quadrupole moment (field-independent basis, Debye-Ang):
   XX=             -0.6109   YY=              0.4257   ZZ=              0.1851
   XY=             -0.0137   XZ=             -0.0203   YZ=             -0.0020
 Octapole moment (field-independent basis, Debye-Ang**2):
  XXX=             -0.0139  YYY=              0.1772  ZZZ=              1.4245  XYY=              0.2258
  XXY=             -0.0110  XXZ=             -0.0970  XZZ=             -0.2099  YZZ=             -0.1970
  YYZ=             -1.4222  XYZ=              0.2184
 Hexadecapole moment (field-independent basis, Debye-Ang**3):
 XXXX=           -193.4236 YYYY=            -28.4046 ZZZZ=            -28.2431 XXXY=             -0.0472
 XXXZ=             -0.0710 YYYX=              0.6564 YYYZ=              0.0660 ZZZX=             -0.0279
 ZZZY=             -0.0873 XXYY=            -33.7661 XXZZ=            -33.9393 YYZZ=             -9.5503
 XXYZ=             -0.0266 YYXZ=              0.1182 ZZXY=             -0.5962
 N-N= 4.808639208181D+01 E-N=-2.816309673844D+02  KE= 8.020757082272D+01
 1|1|UNPC-INANI_LAP|SP|RB3LYP|3-21G|C2H8|EMMAN|29-Mar-2026|0||# b3lyp/3
 -21g geom=connectivity||Title Card Required - Distancia +0.75A - Paso 
 3||0,1|C,0,-2.07749416,-0.63700562,-0.01419458|H,0,-1.26790947,-1.3306
 9728,0.07671479|H,0,-1.78518986,-0.23363379,0.93277394|H,0,-1.66220218
 ,-0.19108573,-0.89373311|H,0,-2.75060946,-1.44993395,-0.19015855|C,0,-
 3.8509759,0.81133905,0.01944153|H,0,-4.50368341,-0.01955018,0.18824907
 |H,0,-3.4283495,1.3230412,0.85875545|H,0,-3.58766221,1.17139383,-0.953
 14597|H,0,-4.70130873,1.46040544,0.04282765||Version=IA32W-G09RevD.01|
 State=1-A|HF=-80.483826|RMSD=1.233e-009|Dipole=-0.0001995,-0.001617,0.
 0139383|Quadrupole=-0.1556591,-0.0153,0.1709591,0.3612219,0.0659133,0.
 0368065|PG=C01 [X(C2H8)]||@


 IF YOU BELIEVE CERTAIN WORDS, YOU BELIEVE THEIR HIDDEN ARGUMENTS.
 WHEN YOU BELIEVE SOMETHING IS RIGHT OR WRONG, TRUE OR FALSE, 
 YOU BELIEVE THE ASSUMPTIONS IN THE WORDS WHICH EXPRESS THE ARGUMENTS.
 SUCH ASSUMPTIONS ARE OFTEN FULL OF HOLES, BUT REMAIN MOST PRECIOUS 
 TO THE CONVINCED.

                 -- THE OPEN-ENDED PROOF FROM THE PANOPLIA PROPHETICA
                    CHILDREN OF DUNE BY FRANK HERBERT
 Job cpu time:       0 days  0 hours  0 minutes  4.0 seconds.
 File lengths (MBytes):  RWF=      5 Int=      0 D2E=      0 Chk=      1 Scr=      1
 Normal termination of Gaussian 09 at Sun Mar 29 02:36:58 2026.
