 Entering Link 1 = C:\G09W\l1.exe PID=     15232.
  
 Copyright (c) 1988,1990,1992,1993,1995,1998,2003,2009,2013,
            Gaussian, Inc.  All Rights Reserved.
  
 This is part of the Gaussian(R) 09 program.  It is based on
 the Gaussian(R) 03 system (copyright 2003, Gaussian, Inc.),
 the Gaussian(R) 98 system (copyright 1998, Gaussian, Inc.),
 the Gaussian(R) 94 system (copyright 1995, Gaussian, Inc.),
 the Gaussian 92(TM) system (copyright 1992, Gaussian, Inc.),
 the Gaussian 90(TM) system (copyright 1990, Gaussian, Inc.),
 the Gaussian 88(TM) system (copyright 1988, Gaussian, Inc.),
 the Gaussian 86(TM) system (copyright 1986, Carnegie Mellon
 University), and the Gaussian 82(TM) system (copyright 1983,
 Carnegie Mellon University). Gaussian is a federally registered
 trademark of Gaussian, Inc.
  
 This software contains proprietary and confidential information,
 including trade secrets, belonging to Gaussian, Inc.
  
 This software is provided under written license and may be
 used, copied, transmitted, or stored only in accord with that
 written license.
  
 The following legend is applicable only to US Government
 contracts under FAR:
  
                    RESTRICTED RIGHTS LEGEND
  
 Use, reproduction and disclosure by the US Government is
 subject to restrictions as set forth in subparagraphs (a)
 and (c) of the Commercial Computer Software - Restricted
 Rights clause in FAR 52.227-19.
  
 Gaussian, Inc.
 340 Quinnipiac St., Bldg. 40, Wallingford CT 06492
  
  
 ---------------------------------------------------------------
 Warning -- This program may not be used in any manner that
 competes with the business of Gaussian, Inc. or will provide
 assistance to any competitor of Gaussian, Inc.  The licensee
 of this program is prohibited from giving any competitor of
 Gaussian, Inc. access to this program.  By using this program,
 the user acknowledges that Gaussian, Inc. is engaged in the
 business of creating and licensing software in the field of
 computational chemistry and represents and warrants to the
 licensee that it is not a competitor of Gaussian, Inc. and that
 it will not use this program in any manner prohibited above.
 ---------------------------------------------------------------
  

 Cite this work as:
 Gaussian 09, Revision D.01,
 M. J. Frisch, G. W. Trucks, H. B. Schlegel, G. E. Scuseria, 
 M. A. Robb, J. R. Cheeseman, G. Scalmani, V. Barone, B. Mennucci, 
 G. A. Petersson, H. Nakatsuji, M. Caricato, X. Li, H. P. Hratchian, 
 A. F. Izmaylov, J. Bloino, G. Zheng, J. L. Sonnenberg, M. Hada, 
 M. Ehara, K. Toyota, R. Fukuda, J. Hasegawa, M. Ishida, T. Nakajima, 
 Y. Honda, O. Kitao, H. Nakai, T. Vreven, J. A. Montgomery, Jr., 
 J. E. Peralta, F. Ogliaro, M. Bearpark, J. J. Heyd, E. Brothers, 
 K. N. Kudin, V. N. Staroverov, T. Keith, R. Kobayashi, J. Normand, 
 K. Raghavachari, A. Rendell, J. C. Burant, S. S. Iyengar, J. Tomasi, 
 M. Cossi, N. Rega, J. M. Millam, M. Klene, J. E. Knox, J. B. Cross, 
 V. Bakken, C. Adamo, J. Jaramillo, R. Gomperts, R. E. Stratmann, 
 O. Yazyev, A. J. Austin, R. Cammi, C. Pomelli, J. W. Ochterski, 
 R. L. Martin, K. Morokuma, V. G. Zakrzewski, G. A. Voth, 
 P. Salvador, J. J. Dannenberg, S. Dapprich, A. D. Daniels, 
 O. Farkas, J. B. Foresman, J. V. Ortiz, J. Cioslowski, 
 and D. J. Fox, Gaussian, Inc., Wallingford CT, 2013.
 
 ******************************************
 Gaussian 09:  IA32W-G09RevD.01 24-Apr-2013
                29-Mar-2026 
 ******************************************
 %chk=C:\Users\emman\Escritorio\quimica-enlaces\molecula\H2O.chk
 -------------------------------
 # b3lyp/3-21g geom=connectivity
 -------------------------------
 1/38=1,57=2/1;
 2/12=2,17=6,18=5,40=1/2;
 3/5=5,11=2,16=1,25=1,30=1,74=-5/1,2,3;
 4//1;
 5/5=2,38=5/2;
 6/7=2,8=2,9=2,10=2,28=1/1;
 99/5=1,9=1/99;
 -----------------------------------------------
 Title Card Required - Distancia +0.00A - Paso 0
 -----------------------------------------------
 Symbolic Z-matrix:
 Charge =  0 Multiplicity = 1
 C                    -2.07749  -0.63701  -0.01419 
 H                    -1.26791  -1.3307    0.07671 
 H                    -1.78519  -0.23363   0.93277 
 H                    -1.6622   -0.19109  -0.89373 
 H                    -2.75061  -1.44993  -0.19016 
 C                    -3.26992   0.33732   0.00594 
 H                    -3.92263  -0.49356   0.17474 
 H                    -2.84729   0.84903   0.84525 
 H                    -3.0066    0.69738  -0.96665 
 H                    -4.12025   0.98639   0.02932 
 
                          Input orientation:                          
 ---------------------------------------------------------------------
 Center     Atomic      Atomic             Coordinates (Angstroms)
 Number     Number       Type             X           Y           Z
 ---------------------------------------------------------------------
      1          6           0       -2.077494   -0.637006   -0.014195
      2          1           0       -1.267909   -1.330697    0.076715
      3          1           0       -1.785190   -0.233634    0.932774
      4          1           0       -1.662202   -0.191086   -0.893733
      5          1           0       -2.750609   -1.449934   -0.190159
      6          6           0       -3.269918    0.337325    0.005935
      7          1           0       -3.922626   -0.493565    0.174743
      8          1           0       -2.847292    0.849027    0.845249
      9          1           0       -3.006605    0.697379   -0.966652
     10          1           0       -4.120251    0.986391    0.029322
 ---------------------------------------------------------------------
                    Distance matrix (angstroms):
                    1          2          3          4          5
     1  C    0.000000
     2  H    1.070000   0.000000
     3  H    1.070000   1.484576   0.000000
     4  H    1.070000   1.547886   1.831137   0.000000
     5  H    1.070000   1.511237   1.916350   1.806750   0.000000
     6  C    1.540000   2.606788   1.841044   1.916604   1.871477
     7  H    1.860318   2.785304   2.282719   2.518462   1.556091
     8  H    1.881363   2.799338   1.519169   2.347410   2.523220
     9  H    1.884411   2.867886   2.442634   1.613104   2.297701
    10  H    2.609630   3.675187   2.785175   2.877583   2.803528
                    6          7          8          9         10
     6  C    0.000000
     7  H    1.070000   0.000000
     8  H    1.070000   1.846205   0.000000
     9  H    1.070000   1.886856   1.825203   0.000000
    10  H    1.070000   1.500157   1.518233   1.521742   0.000000
 Stoichiometry    C2H8
 Framework group  C1[X(C2H8)]
 Deg. of freedom    24
 Full point group                 C1      NOp   1
 Largest Abelian subgroup         C1      NOp   1
 Largest concise Abelian subgroup C1      NOp   1
                         Standard orientation:                         
 ---------------------------------------------------------------------
 Center     Atomic      Atomic             Coordinates (Angstroms)
 Number     Number       Type             X           Y           Z
 ---------------------------------------------------------------------
      1          6           0        0.770015    0.002714    0.000277
      2          1           0        1.834486   -0.021578   -0.105613
      3          1           0        0.728135   -0.862775   -0.627477
      4          1           0        0.821801   -0.152496    1.057693
      5          1           0        0.765320    1.026729   -0.310000
      6          6           0       -0.769984    0.002909    0.001548
      7          1           0       -0.752296    0.874767   -0.618493
      8          1           0       -0.777960   -0.964126   -0.456360
      9          1           0       -0.780300    0.035119    1.071013
     10          1           0       -1.839372    0.030618   -0.021711
 ---------------------------------------------------------------------
 Rotational constants (GHZ):     72.9133393     18.0398436     17.9357688
 Standard basis: 3-21G (6D, 7F)
 There are    34 symmetry adapted cartesian basis functions of A   symmetry.
 There are    34 symmetry adapted basis functions of A   symmetry.
    34 basis functions,    54 primitive gaussians,    34 cartesian basis functions
    10 alpha electrons       10 beta electrons
       nuclear repulsion energy        56.1241015204 Hartrees.
 NAtoms=   10 NActive=   10 NUniq=   10 SFac= 1.00D+00 NAtFMM=   60 NAOKFM=F Big=F
 Integral buffers will be    262144 words long.
 Raffenetti 2 integral format.
 Two-electron integral symmetry is turned on.
 One-electron integrals computed using PRISM.
 NBasis=    34 RedAO= T EigKep=  6.98D-03  NBF=    34
 NBsUse=    34 1.00D-06 EigRej= -1.00D+00 NBFU=    34
 ExpMin= 1.83D-01 ExpMax= 1.72D+02 ExpMxC= 1.72D+02 IAcc=1 IRadAn=         1 AccDes= 0.00D+00
 Harris functional with IExCor=  402 and IRadAn=       1 diagonalized for initial guess.
 HarFok:  IExCor=  402 AccDes= 0.00D+00 IRadAn=         1 IDoV= 1 UseB2=F ITyADJ=14
 ICtDFT=  3500011 ScaDFX=  1.000000  1.000000  1.000000  1.000000
 FoFCou: FMM=F IPFlag=           0 FMFlag=      100000 FMFlg1=           0
         NFxFlg=           0 DoJE=T BraDBF=F KetDBF=T FulRan=T
         wScrn=  0.000000 ICntrl=     500 IOpCl=  0 I1Cent=   200000004 NGrid=           0
         NMat0=    1 NMatS0=      1 NMatT0=    0 NMatD0=    1 NMtDS0=    0 NMtDT0=    0
 Petite list used in FoFCou.
 Keep R1 ints in memory in canonical form, NReq=1056238.
 Requested convergence on RMS density matrix=1.00D-08 within 128 cycles.
 Requested convergence on MAX density matrix=1.00D-06.
 Requested convergence on             energy=1.00D-06.
 No special actions if energy rises.
 Integral accuracy reduced to 1.0D-05 until final iterations.
 Initial convergence to 1.0D-05 achieved.  Increase integral accuracy.
 SCF Done:  E(RB3LYP) =  -80.2160949520     A.U. after   12 cycles
            NFock= 12  Conv=0.77D-08     -V/T= 1.9885

 **********************************************************************

            Population analysis using the SCF density.

 **********************************************************************

 Orbital symmetries:
       Occupied  (A) (A) (A) (A) (A) (A) (A) (A) (A) (A)
       Virtual   (A) (A) (A) (A) (A) (A) (A) (A) (A) (A) (A) (A)
                 (A) (A) (A) (A) (A) (A) (A) (A) (A) (A) (A) (A)
 The electronic state is 1-A.
 Alpha  occ. eigenvalues --  -10.09073 -10.08996  -0.83257  -0.65397  -0.51321
 Alpha  occ. eigenvalues --   -0.50245  -0.45214  -0.34690  -0.34251  -0.12852
 Alpha virt. eigenvalues --    0.01360   0.12428   0.13449   0.18968   0.20000
 Alpha virt. eigenvalues --    0.28194   0.28937   0.39763   0.70224   0.71820
 Alpha virt. eigenvalues --    0.74430   0.77628   0.87699   0.99407   1.01491
 Alpha virt. eigenvalues --    1.07082   1.07350   1.10876   1.11528   1.15369
 Alpha virt. eigenvalues --    1.19522   1.38046   1.83316   2.23798
          Condensed to atoms (all electrons):
               1          2          3          4          5          6
     1  C    6.441395   0.156582   0.554540   0.480469   0.537452  -0.957424
     2  H    0.156582   0.883522  -0.115597  -0.063316  -0.099911   0.105489
     3  H    0.554540  -0.115597   0.603612  -0.010380   0.005306  -0.195365
     4  H    0.480469  -0.063316  -0.010380   0.535385  -0.013426  -0.122057
     5  H    0.537452  -0.099911   0.005306  -0.013426   0.582029  -0.173406
     6  C   -0.957424   0.105489  -0.195365  -0.122057  -0.173406   6.442634
     7  H   -0.181750   0.014340  -0.017397  -0.000484  -0.078043   0.543252
     8  H   -0.154565   0.010357  -0.075481  -0.004694  -0.001778   0.517247
     9  H   -0.154765   0.011254  -0.006043  -0.053839  -0.012623   0.513162
    10  H    0.105755  -0.004198   0.015868   0.007171   0.013138   0.156194
               7          8          9         10
     1  C   -0.181750  -0.154565  -0.154765   0.105755
     2  H    0.014340   0.010357   0.011254  -0.004198
     3  H   -0.017397  -0.075481  -0.006043   0.015868
     4  H   -0.000484  -0.004694  -0.053839   0.007171
     5  H   -0.078043  -0.001778  -0.012623   0.013138
     6  C    0.543252   0.517247   0.513162   0.156194
     7  H    0.590802  -0.005497   0.000302  -0.106242
     8  H   -0.005497   0.564408  -0.009996  -0.082096
     9  H    0.000302  -0.009996   0.559357  -0.091351
    10  H   -0.106242  -0.082096  -0.091351   0.884552
 Mulliken charges:
               1
     1  C   -0.827688
     2  H    0.101478
     3  H    0.240936
     4  H    0.245172
     5  H    0.241262
     6  C   -0.829726
     7  H    0.240717
     8  H    0.242097
     9  H    0.244543
    10  H    0.101209
 Sum of Mulliken charges =   0.00000
 Mulliken charges with hydrogens summed into heavy atoms:
               1
     1  C    0.001159
     6  C   -0.001159
 Electronic spatial extent (au):  <R**2>=            126.1145
 Charge=              0.0000 electrons
 Dipole moment (field-independent basis, Debye):
    X=              0.0068    Y=             -0.0219    Z=              0.0344  Tot=              0.0413
 Quadrupole moment (field-independent basis, Debye-Ang):
   XX=            -22.2473   YY=            -15.2082   ZZ=            -15.3970
   XY=              0.0299   XZ=              0.0550   YZ=             -0.0021
 Traceless Quadrupole moment (field-independent basis, Debye-Ang):
   XX=             -4.6298   YY=              2.4093   ZZ=              2.2205
   XY=              0.0299   XZ=              0.0550   YZ=             -0.0021
 Octapole moment (field-independent basis, Debye-Ang**2):
  XXX=              0.0458  YYY=              0.1679  ZZZ=              1.7049  XYY=              0.0778
  XXY=             -0.0488  XXZ=              0.1658  XZZ=             -0.0772  YZZ=             -0.2281
  YYZ=             -1.5228  XYZ=              0.0620
 Hexadecapole moment (field-independent basis, Debye-Ang**3):
 XXXX=           -134.6514 YYYY=            -27.1826 ZZZZ=            -26.8911 XXXY=              0.2059
 XXXZ=              0.3335 YYYX=              0.3686 YYYZ=              0.0661 ZZZX=              0.1060
 ZZZY=             -0.0860 XXYY=            -23.7561 XXZZ=            -23.6644 YYZZ=             -9.1474
 XXYZ=             -0.0257 YYXZ=              0.0942 ZZXY=             -0.2474
 N-N= 5.612410152035D+01 E-N=-2.977562209035D+02  KE= 8.114580972421D+01
 1|1|UNPC-INANI_LAP|SP|RB3LYP|3-21G|C2H8|EMMAN|29-Mar-2026|0||# b3lyp/3
 -21g geom=connectivity||Title Card Required - Distancia +0.00A - Paso 
 0||0,1|C,0,-2.07749416,-0.63700562,-0.01419458|H,0,-1.26790947,-1.3306
 9728,0.07671479|H,0,-1.78518986,-0.23363379,0.93277394|H,0,-1.66220218
 ,-0.19108573,-0.89373311|H,0,-2.75060946,-1.44993395,-0.19015855|C,0,-
 3.26991827,0.33732468,0.00593548|H,0,-3.92262578,-0.49356455,0.1747430
 2|H,0,-2.84729187,0.84902683,0.8452494|H,0,-3.00660458,0.69737946,-0.9
 6665202|H,0,-4.1202511,0.98639107,0.0293216||Version=IA32W-G09RevD.01|
 State=1-A|HF=-80.216095|RMSD=7.725e-009|Dipole=0.0106712,0.009,-0.0083
 368|Quadrupole=-1.3599534,-0.3175923,1.6775457,2.5509844,0.0536656,0.0
 270433|PG=C01 [X(C2H8)]||@


 IF YOU BELIEVE CERTAIN WORDS, YOU BELIEVE THEIR HIDDEN ARGUMENTS.
 WHEN YOU BELIEVE SOMETHING IS RIGHT OR WRONG, TRUE OR FALSE, 
 YOU BELIEVE THE ASSUMPTIONS IN THE WORDS WHICH EXPRESS THE ARGUMENTS.
 SUCH ASSUMPTIONS ARE OFTEN FULL OF HOLES, BUT REMAIN MOST PRECIOUS 
 TO THE CONVINCED.

                 -- THE OPEN-ENDED PROOF FROM THE PANOPLIA PROPHETICA
                    CHILDREN OF DUNE BY FRANK HERBERT
 Job cpu time:       0 days  0 hours  0 minutes  6.0 seconds.
 File lengths (MBytes):  RWF=      5 Int=      0 D2E=      0 Chk=      1 Scr=      1
 Normal termination of Gaussian 09 at Sun Mar 29 02:36:49 2026.
