 Entering Link 1 = C:\G09W\l1.exe PID=      9476.
  
 Copyright (c) 1988,1990,1992,1993,1995,1998,2003,2009,2013,
            Gaussian, Inc.  All Rights Reserved.
  
 This is part of the Gaussian(R) 09 program.  It is based on
 the Gaussian(R) 03 system (copyright 2003, Gaussian, Inc.),
 the Gaussian(R) 98 system (copyright 1998, Gaussian, Inc.),
 the Gaussian(R) 94 system (copyright 1995, Gaussian, Inc.),
 the Gaussian 92(TM) system (copyright 1992, Gaussian, Inc.),
 the Gaussian 90(TM) system (copyright 1990, Gaussian, Inc.),
 the Gaussian 88(TM) system (copyright 1988, Gaussian, Inc.),
 the Gaussian 86(TM) system (copyright 1986, Carnegie Mellon
 University), and the Gaussian 82(TM) system (copyright 1983,
 Carnegie Mellon University). Gaussian is a federally registered
 trademark of Gaussian, Inc.
  
 This software contains proprietary and confidential information,
 including trade secrets, belonging to Gaussian, Inc.
  
 This software is provided under written license and may be
 used, copied, transmitted, or stored only in accord with that
 written license.
  
 The following legend is applicable only to US Government
 contracts under FAR:
  
                    RESTRICTED RIGHTS LEGEND
  
 Use, reproduction and disclosure by the US Government is
 subject to restrictions as set forth in subparagraphs (a)
 and (c) of the Commercial Computer Software - Restricted
 Rights clause in FAR 52.227-19.
  
 Gaussian, Inc.
 340 Quinnipiac St., Bldg. 40, Wallingford CT 06492
  
  
 ---------------------------------------------------------------
 Warning -- This program may not be used in any manner that
 competes with the business of Gaussian, Inc. or will provide
 assistance to any competitor of Gaussian, Inc.  The licensee
 of this program is prohibited from giving any competitor of
 Gaussian, Inc. access to this program.  By using this program,
 the user acknowledges that Gaussian, Inc. is engaged in the
 business of creating and licensing software in the field of
 computational chemistry and represents and warrants to the
 licensee that it is not a competitor of Gaussian, Inc. and that
 it will not use this program in any manner prohibited above.
 ---------------------------------------------------------------
  

 Cite this work as:
 Gaussian 09, Revision D.01,
 M. J. Frisch, G. W. Trucks, H. B. Schlegel, G. E. Scuseria, 
 M. A. Robb, J. R. Cheeseman, G. Scalmani, V. Barone, B. Mennucci, 
 G. A. Petersson, H. Nakatsuji, M. Caricato, X. Li, H. P. Hratchian, 
 A. F. Izmaylov, J. Bloino, G. Zheng, J. L. Sonnenberg, M. Hada, 
 M. Ehara, K. Toyota, R. Fukuda, J. Hasegawa, M. Ishida, T. Nakajima, 
 Y. Honda, O. Kitao, H. Nakai, T. Vreven, J. A. Montgomery, Jr., 
 J. E. Peralta, F. Ogliaro, M. Bearpark, J. J. Heyd, E. Brothers, 
 K. N. Kudin, V. N. Staroverov, T. Keith, R. Kobayashi, J. Normand, 
 K. Raghavachari, A. Rendell, J. C. Burant, S. S. Iyengar, J. Tomasi, 
 M. Cossi, N. Rega, J. M. Millam, M. Klene, J. E. Knox, J. B. Cross, 
 V. Bakken, C. Adamo, J. Jaramillo, R. Gomperts, R. E. Stratmann, 
 O. Yazyev, A. J. Austin, R. Cammi, C. Pomelli, J. W. Ochterski, 
 R. L. Martin, K. Morokuma, V. G. Zakrzewski, G. A. Voth, 
 P. Salvador, J. J. Dannenberg, S. Dapprich, A. D. Daniels, 
 O. Farkas, J. B. Foresman, J. V. Ortiz, J. Cioslowski, 
 and D. J. Fox, Gaussian, Inc., Wallingford CT, 2013.
 
 ******************************************
 Gaussian 09:  IA32W-G09RevD.01 24-Apr-2013
                29-Mar-2026 
 ******************************************
 %chk=C:\Users\emman\Escritorio\quimica-enlaces\molecula\H2O.chk
 -------------------------------
 # b3lyp/3-21g geom=connectivity
 -------------------------------
 1/38=1,57=2/1;
 2/12=2,17=6,18=5,40=1/2;
 3/5=5,11=2,16=1,25=1,30=1,74=-5/1,2,3;
 4//1;
 5/5=2,38=5/2;
 6/7=2,8=2,9=2,10=2,28=1/1;
 99/5=1,9=1/99;
 -----------------------------------------------
 Title Card Required - Distancia +1.75A - Paso 7
 -----------------------------------------------
 Symbolic Z-matrix:
 Charge =  0 Multiplicity = 1
 C                    -2.07749  -0.63701  -0.01419 
 H                    -1.26791  -1.3307    0.07671 
 H                    -1.78519  -0.23363   0.93277 
 H                    -1.6622   -0.19109  -0.89373 
 H                    -2.75061  -1.44993  -0.19016 
 C                    -4.62572   1.44336   0.03745 
 H                    -5.27843   0.61247   0.20626 
 H                    -4.20309   1.95506   0.87676 
 H                    -4.36241   1.80341  -0.93514 
 H                    -5.47605   2.09242   0.06084 
 
                          Input orientation:                          
 ---------------------------------------------------------------------
 Center     Atomic      Atomic             Coordinates (Angstroms)
 Number     Number       Type             X           Y           Z
 ---------------------------------------------------------------------
      1          6           0       -2.077494   -0.637006   -0.014195
      2          1           0       -1.267909   -1.330697    0.076715
      3          1           0       -1.785190   -0.233634    0.932774
      4          1           0       -1.662202   -0.191086   -0.893733
      5          1           0       -2.750609   -1.449934   -0.190159
      6          6           0       -4.625719    1.443358    0.037450
      7          1           0       -5.278427    0.612469    0.206257
      8          1           0       -4.203093    1.955060    0.876764
      9          1           0       -4.362406    1.803413   -0.935138
     10          1           0       -5.476052    2.092425    0.060836
 ---------------------------------------------------------------------
                    Distance matrix (angstroms):
                    1          2          3          4          5
     1  C    0.000000
     2  H    1.070000   0.000000
     3  H    1.070000   1.484576   0.000000
     4  H    1.070000   1.547886   1.831137   0.000000
     5  H    1.070000   1.511237   1.916350   1.806750   0.000000
     6  C    3.289990   4.355664   3.417970   3.510120   3.455283
     7  H    3.443219   4.458355   3.666936   3.864293   3.286413
     8  H    3.468542   4.477899   3.261867   3.767854   3.852534
     9  H    3.467651   4.519115   3.778981   3.357207   3.706366
    10  H    4.359543   5.424618   4.448965   4.546545   4.476532
                    6          7          8          9         10
     6  C    0.000000
     7  H    1.070000   0.000000
     8  H    1.070000   1.846205   0.000000
     9  H    1.070000   1.886856   1.825203   0.000000
    10  H    1.070000   1.500157   1.518233   1.521742   0.000000
 Stoichiometry    C2H8
 Framework group  C1[X(C2H8)]
 Deg. of freedom    24
 Full point group                 C1      NOp   1
 Largest Abelian subgroup         C1      NOp   1
 Largest concise Abelian subgroup C1      NOp   1
                         Standard orientation:                         
 ---------------------------------------------------------------------
 Center     Atomic      Atomic             Coordinates (Angstroms)
 Number     Number       Type             X           Y           Z
 ---------------------------------------------------------------------
      1          6           0        1.645015    0.002463   -0.000362
      2          1           0        2.709196   -0.022780   -0.108898
      3          1           0        1.600817   -0.863116   -0.627833
      4          1           0        1.699298   -0.152580    1.056953
      5          1           0        1.640440    1.026419   -0.310835
      6          6           0       -1.644974    0.003161    0.002186
      7          1           0       -1.628069    0.874878   -0.618075
      8          1           0       -1.654933   -0.963959   -0.455504
      9          1           0       -1.652599    0.035595    1.071667
     10          1           0       -2.714392    0.031798   -0.018416
 ---------------------------------------------------------------------
 Rotational constants (GHZ):     72.9121382      5.0771259      5.0688525
 Standard basis: 3-21G (6D, 7F)
 There are    34 symmetry adapted cartesian basis functions of A   symmetry.
 There are    34 symmetry adapted basis functions of A   symmetry.
    34 basis functions,    54 primitive gaussians,    34 cartesian basis functions
    10 alpha electrons       10 beta electrons
       nuclear repulsion energy        42.4323120317 Hartrees.
 NAtoms=   10 NActive=   10 NUniq=   10 SFac= 1.00D+00 NAtFMM=   60 NAOKFM=F Big=F
 Integral buffers will be    262144 words long.
 Raffenetti 2 integral format.
 Two-electron integral symmetry is turned on.
 One-electron integrals computed using PRISM.
 NBasis=    34 RedAO= T EigKep=  2.82D-02  NBF=    34
 NBsUse=    34 1.00D-06 EigRej= -1.00D+00 NBFU=    34
 ExpMin= 1.83D-01 ExpMax= 1.72D+02 ExpMxC= 1.72D+02 IAcc=1 IRadAn=         1 AccDes= 0.00D+00
 Harris functional with IExCor=  402 and IRadAn=       1 diagonalized for initial guess.
 HarFok:  IExCor=  402 AccDes= 0.00D+00 IRadAn=         1 IDoV= 1 UseB2=F ITyADJ=14
 ICtDFT=  3500011 ScaDFX=  1.000000  1.000000  1.000000  1.000000
 FoFCou: FMM=F IPFlag=           0 FMFlag=      100000 FMFlg1=           0
         NFxFlg=           0 DoJE=T BraDBF=F KetDBF=T FulRan=T
         wScrn=  0.000000 ICntrl=     500 IOpCl=  0 I1Cent=   200000004 NGrid=           0
         NMat0=    1 NMatS0=      1 NMatT0=    0 NMatD0=    1 NMtDS0=    0 NMtDT0=    0
 Petite list used in FoFCou.
 Keep R1 ints in memory in canonical form, NReq=1056238.
 Requested convergence on RMS density matrix=1.00D-08 within 128 cycles.
 Requested convergence on MAX density matrix=1.00D-06.
 Requested convergence on             energy=1.00D-06.
 No special actions if energy rises.
 Integral accuracy reduced to 1.0D-05 until final iterations.
 Initial convergence to 1.0D-05 achieved.  Increase integral accuracy.
 SCF Done:  E(RB3LYP) =  -80.5128766123     A.U. after   10 cycles
            NFock= 10  Conv=0.86D-08     -V/T= 2.0059

 **********************************************************************

            Population analysis using the SCF density.

 **********************************************************************

 Orbital symmetries:
       Occupied  (A) (A) (A) (A) (A) (A) (A) (A) (A) (A)
       Virtual   (A) (A) (A) (A) (A) (A) (A) (A) (A) (A) (A) (A)
                 (A) (A) (A) (A) (A) (A) (A) (A) (A) (A) (A) (A)
 The electronic state is 1-A.
 Alpha  occ. eigenvalues --  -10.08627 -10.08615  -0.71259  -0.70937  -0.41847
 Alpha  occ. eigenvalues --   -0.41330  -0.40159  -0.39711  -0.33698  -0.31265
 Alpha virt. eigenvalues --    0.13023   0.14927   0.14993   0.19789   0.20452
 Alpha virt. eigenvalues --    0.20696   0.22126   0.22930   0.59788   0.68859
 Alpha virt. eigenvalues --    0.70110   0.75207   0.76486   0.85187   0.98834
 Alpha virt. eigenvalues --    1.06763   1.07803   1.08043   1.10352   1.11296
 Alpha virt. eigenvalues --    1.16589   1.16971   1.74884   1.77627
          Condensed to atoms (all electrons):
               1          2          3          4          5          6
     1  C    5.336716   0.298855   0.383409   0.379052   0.382709   0.001309
     2  H    0.298855   0.688813  -0.063009  -0.051523  -0.058551   0.000094
     3  H    0.383409  -0.063009   0.511669  -0.019753  -0.011486   0.000165
     4  H    0.379052  -0.051523  -0.019753   0.515713  -0.022422   0.000164
     5  H    0.382709  -0.058551  -0.011486  -0.022422   0.509662   0.000149
     6  C    0.001309   0.000094   0.000165   0.000164   0.000149   5.335333
     7  H    0.000160   0.000010  -0.000008  -0.000003   0.000109   0.383196
     8  H    0.000156   0.000006   0.000132   0.000001  -0.000005   0.379869
     9  H    0.000167   0.000008  -0.000008   0.000091  -0.000003   0.382575
    10  H    0.000096  -0.000003   0.000012   0.000004   0.000009   0.298375
               7          8          9         10
     1  C    0.000160   0.000156   0.000167   0.000096
     2  H    0.000010   0.000006   0.000008  -0.000003
     3  H   -0.000008   0.000132  -0.000008   0.000012
     4  H   -0.000003   0.000001   0.000091   0.000004
     5  H    0.000109  -0.000005  -0.000003   0.000009
     6  C    0.383196   0.379869   0.382575   0.298375
     7  H    0.510761  -0.018180  -0.014341  -0.060220
     8  H   -0.018180   0.516927  -0.020450  -0.056510
     9  H   -0.014341  -0.020450   0.509352  -0.056576
    10  H   -0.060220  -0.056510  -0.056576   0.689398
 Mulliken charges:
               1
     1  C   -0.782628
     2  H    0.185300
     3  H    0.198877
     4  H    0.198676
     5  H    0.199830
     6  C   -0.781229
     7  H    0.198517
     8  H    0.198055
     9  H    0.199186
    10  H    0.185416
 Sum of Mulliken charges =   0.00000
 Mulliken charges with hydrogens summed into heavy atoms:
               1
     1  C    0.000055
     6  C   -0.000055
 Electronic spatial extent (au):  <R**2>=            284.6294
 Charge=              0.0000 electrons
 Dipole moment (field-independent basis, Debye):
    X=              0.0000    Y=             -0.0134    Z=             -0.0434  Tot=              0.0455
 Quadrupole moment (field-independent basis, Debye-Ang):
   XX=            -13.5242   YY=            -15.6550   ZZ=            -15.9008
   XY=             -0.0345   XZ=             -0.0516   YZ=             -0.0020
 Traceless Quadrupole moment (field-independent basis, Debye-Ang):
   XX=              1.5025   YY=             -0.6283   ZZ=             -0.8741
   XY=             -0.0345   XZ=             -0.0516   YZ=             -0.0020
 Octapole moment (field-independent basis, Debye-Ang**2):
  XXX=             -0.0535  YYY=              0.1763  ZZZ=              1.4285  XYY=              0.3321
  XXY=             -0.0136  XXZ=             -0.2847  XZZ=             -0.3083  YZZ=             -0.1988
  YYZ=             -1.4345  XYZ=              0.3279
 Hexadecapole moment (field-independent basis, Debye-Ang**3):
 XXXX=           -327.4997 YYYY=            -28.4909 ZZZZ=            -28.3279 XXXY=             -0.2140
 XXXZ=             -0.3382 YYYX=              0.9243 YYYZ=              0.0663 ZZZX=             -0.0851
 ZZZY=             -0.0876 XXYY=            -55.8556 XXZZ=            -56.3863 YYZZ=             -9.5772
 XXYZ=             -0.0373 YYXZ=              0.1564 ZZXY=             -0.8771
 N-N= 4.243231203169D+01 E-N=-2.701324916528D+02  KE= 8.003751315464D+01
 1|1|UNPC-INANI_LAP|SP|RB3LYP|3-21G|C2H8|EMMAN|29-Mar-2026|0||# b3lyp/3
 -21g geom=connectivity||Title Card Required - Distancia +1.75A - Paso 
 7||0,1|C,0,-2.07749416,-0.63700562,-0.01419458|H,0,-1.26790947,-1.3306
 9728,0.07671479|H,0,-1.78518986,-0.23363379,0.93277394|H,0,-1.66220218
 ,-0.19108573,-0.89373311|H,0,-2.75060946,-1.44993395,-0.19015855|C,0,-
 4.6257194,1.44335821,0.0374496|H,0,-5.27842691,0.61246898,0.20625714|H
 ,0,-4.203093,1.95506036,0.87676352|H,0,-4.36240571,1.80341299,-0.93513
 79|H,0,-5.47605223,2.0924246,0.06083572||Version=IA32W-G09RevD.01|Stat
 e=1-A|HF=-80.5128766|RMSD=8.640e-009|Dipole=-0.0015832,-0.0023897,0.01
 76545|Quadrupole=0.4774628,0.1386933,-0.6161561,-0.7921269,0.0586106,0
 .0446541|PG=C01 [X(C2H8)]||@


 IF YOU BELIEVE CERTAIN WORDS, YOU BELIEVE THEIR HIDDEN ARGUMENTS.
 WHEN YOU BELIEVE SOMETHING IS RIGHT OR WRONG, TRUE OR FALSE, 
 YOU BELIEVE THE ASSUMPTIONS IN THE WORDS WHICH EXPRESS THE ARGUMENTS.
 SUCH ASSUMPTIONS ARE OFTEN FULL OF HOLES, BUT REMAIN MOST PRECIOUS 
 TO THE CONVINCED.

                 -- THE OPEN-ENDED PROOF FROM THE PANOPLIA PROPHETICA
                    CHILDREN OF DUNE BY FRANK HERBERT
 Job cpu time:       0 days  0 hours  0 minutes  3.0 seconds.
 File lengths (MBytes):  RWF=      5 Int=      0 D2E=      0 Chk=      1 Scr=      1
 Normal termination of Gaussian 09 at Sun Mar 29 02:37:10 2026.
