 Entering Link 1 = C:\G09W\l1.exe PID=      3168.
  
 Copyright (c) 1988,1990,1992,1993,1995,1998,2003,2009,2013,
            Gaussian, Inc.  All Rights Reserved.
  
 This is part of the Gaussian(R) 09 program.  It is based on
 the Gaussian(R) 03 system (copyright 2003, Gaussian, Inc.),
 the Gaussian(R) 98 system (copyright 1998, Gaussian, Inc.),
 the Gaussian(R) 94 system (copyright 1995, Gaussian, Inc.),
 the Gaussian 92(TM) system (copyright 1992, Gaussian, Inc.),
 the Gaussian 90(TM) system (copyright 1990, Gaussian, Inc.),
 the Gaussian 88(TM) system (copyright 1988, Gaussian, Inc.),
 the Gaussian 86(TM) system (copyright 1986, Carnegie Mellon
 University), and the Gaussian 82(TM) system (copyright 1983,
 Carnegie Mellon University). Gaussian is a federally registered
 trademark of Gaussian, Inc.
  
 This software contains proprietary and confidential information,
 including trade secrets, belonging to Gaussian, Inc.
  
 This software is provided under written license and may be
 used, copied, transmitted, or stored only in accord with that
 written license.
  
 The following legend is applicable only to US Government
 contracts under FAR:
  
                    RESTRICTED RIGHTS LEGEND
  
 Use, reproduction and disclosure by the US Government is
 subject to restrictions as set forth in subparagraphs (a)
 and (c) of the Commercial Computer Software - Restricted
 Rights clause in FAR 52.227-19.
  
 Gaussian, Inc.
 340 Quinnipiac St., Bldg. 40, Wallingford CT 06492
  
  
 ---------------------------------------------------------------
 Warning -- This program may not be used in any manner that
 competes with the business of Gaussian, Inc. or will provide
 assistance to any competitor of Gaussian, Inc.  The licensee
 of this program is prohibited from giving any competitor of
 Gaussian, Inc. access to this program.  By using this program,
 the user acknowledges that Gaussian, Inc. is engaged in the
 business of creating and licensing software in the field of
 computational chemistry and represents and warrants to the
 licensee that it is not a competitor of Gaussian, Inc. and that
 it will not use this program in any manner prohibited above.
 ---------------------------------------------------------------
  

 Cite this work as:
 Gaussian 09, Revision D.01,
 M. J. Frisch, G. W. Trucks, H. B. Schlegel, G. E. Scuseria, 
 M. A. Robb, J. R. Cheeseman, G. Scalmani, V. Barone, B. Mennucci, 
 G. A. Petersson, H. Nakatsuji, M. Caricato, X. Li, H. P. Hratchian, 
 A. F. Izmaylov, J. Bloino, G. Zheng, J. L. Sonnenberg, M. Hada, 
 M. Ehara, K. Toyota, R. Fukuda, J. Hasegawa, M. Ishida, T. Nakajima, 
 Y. Honda, O. Kitao, H. Nakai, T. Vreven, J. A. Montgomery, Jr., 
 J. E. Peralta, F. Ogliaro, M. Bearpark, J. J. Heyd, E. Brothers, 
 K. N. Kudin, V. N. Staroverov, T. Keith, R. Kobayashi, J. Normand, 
 K. Raghavachari, A. Rendell, J. C. Burant, S. S. Iyengar, J. Tomasi, 
 M. Cossi, N. Rega, J. M. Millam, M. Klene, J. E. Knox, J. B. Cross, 
 V. Bakken, C. Adamo, J. Jaramillo, R. Gomperts, R. E. Stratmann, 
 O. Yazyev, A. J. Austin, R. Cammi, C. Pomelli, J. W. Ochterski, 
 R. L. Martin, K. Morokuma, V. G. Zakrzewski, G. A. Voth, 
 P. Salvador, J. J. Dannenberg, S. Dapprich, A. D. Daniels, 
 O. Farkas, J. B. Foresman, J. V. Ortiz, J. Cioslowski, 
 and D. J. Fox, Gaussian, Inc., Wallingford CT, 2013.
 
 ******************************************
 Gaussian 09:  IA32W-G09RevD.01 24-Apr-2013
                29-Mar-2026 
 ******************************************
 %chk=C:\Users\emman\Escritorio\quimica-enlaces\molecula\H2O.chk
 -------------------------------
 # b3lyp/3-21g geom=connectivity
 -------------------------------
 1/38=1,57=2/1;
 2/12=2,17=6,18=5,40=1/2;
 3/5=5,11=2,16=1,25=1,30=1,74=-5/1,2,3;
 4//1;
 5/5=2,38=5/2;
 6/7=2,8=2,9=2,10=2,28=1/1;
 99/5=1,9=1/99;
 -----------------------------------------------
 Title Card Required - Distancia +1.50A - Paso 6
 -----------------------------------------------
 Symbolic Z-matrix:
 Charge =  0 Multiplicity = 1
 C                    -2.07749  -0.63701  -0.01419 
 H                    -1.26791  -1.3307    0.07671 
 H                    -1.78519  -0.23363   0.93277 
 H                    -1.6622   -0.19109  -0.89373 
 H                    -2.75061  -1.44993  -0.19016 
 C                    -4.43203   1.28535   0.03295 
 H                    -5.08474   0.45446   0.20176 
 H                    -4.00941   1.79706   0.87226 
 H                    -4.16872   1.64541  -0.93964 
 H                    -5.28237   1.93442   0.05633 
 
                          Input orientation:                          
 ---------------------------------------------------------------------
 Center     Atomic      Atomic             Coordinates (Angstroms)
 Number     Number       Type             X           Y           Z
 ---------------------------------------------------------------------
      1          6           0       -2.077494   -0.637006   -0.014195
      2          1           0       -1.267909   -1.330697    0.076715
      3          1           0       -1.785190   -0.233634    0.932774
      4          1           0       -1.662202   -0.191086   -0.893733
      5          1           0       -2.750609   -1.449934   -0.190159
      6          6           0       -4.432034    1.285353    0.032948
      7          1           0       -5.084741    0.454464    0.201755
      8          1           0       -4.009407    1.797056    0.872262
      9          1           0       -4.168720    1.645408   -0.939640
     10          1           0       -5.282366    1.934420    0.056334
 ---------------------------------------------------------------------
                    Distance matrix (angstroms):
                    1          2          3          4          5
     1  C    0.000000
     2  H    1.070000   0.000000
     3  H    1.070000   1.484576   0.000000
     4  H    1.070000   1.547886   1.831137   0.000000
     5  H    1.070000   1.511237   1.916350   1.806750   0.000000
     6  C    3.039991   4.105766   3.181633   3.272702   3.218503
     7  H    3.206474   4.215524   3.448899   3.651110   3.037844
     8  H    3.231524   4.234565   3.012392   3.546944   3.640913
     9  H    3.230958   4.278420   3.566223   3.107643   3.486245
    10  H    4.109551   5.174676   4.207000   4.304183   4.233722
                    6          7          8          9         10
     6  C    0.000000
     7  H    1.070000   0.000000
     8  H    1.070000   1.846205   0.000000
     9  H    1.070000   1.886856   1.825203   0.000000
    10  H    1.070000   1.500157   1.518233   1.521742   0.000000
 Stoichiometry    C2H8
 Framework group  C1[X(C2H8)]
 Deg. of freedom    24
 Full point group                 C1      NOp   1
 Largest Abelian subgroup         C1      NOp   1
 Largest concise Abelian subgroup C1      NOp   1
                         Standard orientation:                         
 ---------------------------------------------------------------------
 Center     Atomic      Atomic             Coordinates (Angstroms)
 Number     Number       Type             X           Y           Z
 ---------------------------------------------------------------------
      1          6           0        1.520015    0.002481   -0.000317
      2          1           0        2.584214   -0.022706   -0.108693
      3          1           0        1.475955   -0.863092   -0.627806
      4          1           0        1.574147   -0.152572    1.057004
      5          1           0        1.515434    1.026440   -0.310778
      6          6           0       -1.519975    0.003143    0.002140
      7          1           0       -1.503022    0.874869   -0.618107
      8          1           0       -1.529816   -0.963972   -0.455563
      9          1           0       -1.527762    0.035564    1.071621
     10          1           0       -2.589391    0.031726   -0.018621
 ---------------------------------------------------------------------
 Rotational constants (GHZ):     72.9122169      5.8549501      5.8439499
 Standard basis: 3-21G (6D, 7F)
 There are    34 symmetry adapted cartesian basis functions of A   symmetry.
 There are    34 symmetry adapted basis functions of A   symmetry.
    34 basis functions,    54 primitive gaussians,    34 cartesian basis functions
    10 alpha electrons       10 beta electrons
       nuclear repulsion energy        43.5372829380 Hartrees.
 NAtoms=   10 NActive=   10 NUniq=   10 SFac= 1.00D+00 NAtFMM=   60 NAOKFM=F Big=F
 Integral buffers will be    262144 words long.
 Raffenetti 2 integral format.
 Two-electron integral symmetry is turned on.
 One-electron integrals computed using PRISM.
 NBasis=    34 RedAO= T EigKep=  2.79D-02  NBF=    34
 NBsUse=    34 1.00D-06 EigRej= -1.00D+00 NBFU=    34
 ExpMin= 1.83D-01 ExpMax= 1.72D+02 ExpMxC= 1.72D+02 IAcc=1 IRadAn=         1 AccDes= 0.00D+00
 Harris functional with IExCor=  402 and IRadAn=       1 diagonalized for initial guess.
 HarFok:  IExCor=  402 AccDes= 0.00D+00 IRadAn=         1 IDoV= 1 UseB2=F ITyADJ=14
 ICtDFT=  3500011 ScaDFX=  1.000000  1.000000  1.000000  1.000000
 FoFCou: FMM=F IPFlag=           0 FMFlag=      100000 FMFlg1=           0
         NFxFlg=           0 DoJE=T BraDBF=F KetDBF=T FulRan=T
         wScrn=  0.000000 ICntrl=     500 IOpCl=  0 I1Cent=   200000004 NGrid=           0
         NMat0=    1 NMatS0=      1 NMatT0=    0 NMatD0=    1 NMtDS0=    0 NMtDT0=    0
 Petite list used in FoFCou.
 Keep R1 ints in memory in canonical form, NReq=1056238.
 Requested convergence on RMS density matrix=1.00D-08 within 128 cycles.
 Requested convergence on MAX density matrix=1.00D-06.
 Requested convergence on             energy=1.00D-06.
 No special actions if energy rises.
 Integral accuracy reduced to 1.0D-05 until final iterations.
 Initial convergence to 1.0D-05 achieved.  Increase integral accuracy.
 SCF Done:  E(RB3LYP) =  -80.5111503905     A.U. after   10 cycles
            NFock= 10  Conv=0.79D-08     -V/T= 2.0058

 **********************************************************************

            Population analysis using the SCF density.

 **********************************************************************

 Orbital symmetries:
       Occupied  (A) (A) (A) (A) (A) (A) (A) (A) (A) (A)
       Virtual   (A) (A) (A) (A) (A) (A) (A) (A) (A) (A) (A) (A)
                 (A) (A) (A) (A) (A) (A) (A) (A) (A) (A) (A) (A)
 The electronic state is 1-A.
 Alpha  occ. eigenvalues --  -10.08509 -10.08488  -0.71263  -0.70709  -0.41814
 Alpha  occ. eigenvalues --   -0.41259  -0.40031  -0.39548  -0.34117  -0.30534
 Alpha virt. eigenvalues --    0.12674   0.15089   0.15443   0.19734   0.20379
 Alpha virt. eigenvalues --    0.20970   0.22584   0.23443   0.59959   0.67970
 Alpha virt. eigenvalues --    0.69295   0.76499   0.77769   0.89837   1.00020
 Alpha virt. eigenvalues --    1.06732   1.07677   1.10031   1.11062   1.12045
 Alpha virt. eigenvalues --    1.16693   1.17417   1.73745   1.80551
          Condensed to atoms (all electrons):
               1          2          3          4          5          6
     1  C    5.335265   0.296055   0.384350   0.379545   0.383544  -0.002652
     2  H    0.296055   0.696290  -0.063609  -0.051772  -0.059071   0.000287
     3  H    0.384350  -0.063609   0.512627  -0.019877  -0.011572  -0.000119
     4  H    0.379545  -0.051772  -0.019877   0.516664  -0.022541   0.000115
     5  H    0.383544  -0.059071  -0.011572  -0.022541   0.510645  -0.000062
     6  C   -0.002652   0.000287  -0.000119   0.000115  -0.000062   5.333913
     7  H   -0.000063   0.000025  -0.000034  -0.000009   0.000158   0.384068
     8  H    0.000004   0.000016   0.000203  -0.000004  -0.000016   0.380554
     9  H    0.000017   0.000020  -0.000025   0.000156  -0.000019   0.383299
    10  H    0.000289  -0.000008   0.000031   0.000009   0.000023   0.295536
               7          8          9         10
     1  C   -0.000063   0.000004   0.000017   0.000289
     2  H    0.000025   0.000016   0.000020  -0.000008
     3  H   -0.000034   0.000203  -0.000025   0.000031
     4  H   -0.000009  -0.000004   0.000156   0.000009
     5  H    0.000158  -0.000016  -0.000019   0.000023
     6  C    0.384068   0.380554   0.383299   0.295536
     7  H    0.511707  -0.018280  -0.014443  -0.060762
     8  H   -0.018280   0.517867  -0.020570  -0.056881
     9  H   -0.014443  -0.020570   0.510333  -0.057040
    10  H   -0.060762  -0.056881  -0.057040   0.696941
 Mulliken charges:
               1
     1  C   -0.776355
     2  H    0.181768
     3  H    0.198026
     4  H    0.197715
     5  H    0.198911
     6  C   -0.774940
     7  H    0.197633
     8  H    0.197107
     9  H    0.198273
    10  H    0.181861
 Sum of Mulliken charges =   0.00000
 Mulliken charges with hydrogens summed into heavy atoms:
               1
     1  C    0.000066
     6  C   -0.000066
 Electronic spatial extent (au):  <R**2>=            254.9360
 Charge=              0.0000 electrons
 Dipole moment (field-independent basis, Debye):
    X=              0.0004    Y=             -0.0132    Z=             -0.0417  Tot=              0.0437
 Quadrupole moment (field-independent basis, Debye-Ang):
   XX=            -14.1411   YY=            -15.6651   ZZ=            -15.9099
   XY=             -0.0306   XZ=             -0.0456   YZ=             -0.0021
 Traceless Quadrupole moment (field-independent basis, Debye-Ang):
   XX=              1.0976   YY=             -0.4264   ZZ=             -0.6712
   XY=             -0.0306   XZ=             -0.0456   YZ=             -0.0021
 Octapole moment (field-independent basis, Debye-Ang**2):
  XXX=             -0.0435  YYY=              0.1757  ZZZ=              1.4195  XYY=              0.3069
  XXY=             -0.0116  XXZ=             -0.2402  XZZ=             -0.2847  YZZ=             -0.1974
  YYZ=             -1.4256  XYZ=              0.3022
 Hexadecapole moment (field-independent basis, Debye-Ang**3):
 XXXX=           -289.7570 YYYY=            -28.5188 ZZZZ=            -28.3550 XXXY=             -0.1674
 XXXZ=             -0.2629 YYYX=              0.8560 YYYZ=              0.0659 ZZZX=             -0.0735
 ZZZY=             -0.0873 XXYY=            -49.5334 XXZZ=            -49.9688 YYZZ=             -9.5858
 XXYZ=             -0.0341 YYXZ=              0.1460 ZZXY=             -0.8083
 N-N= 4.353728293801D+01 E-N=-2.723720392749D+02  KE= 8.004863167538D+01
 1|1|UNPC-INANI_LAP|SP|RB3LYP|3-21G|C2H8|EMMAN|29-Mar-2026|0||# b3lyp/3
 -21g geom=connectivity||Title Card Required - Distancia +1.50A - Paso 
 6||0,1|C,0,-2.07749416,-0.63700562,-0.01419458|H,0,-1.26790947,-1.3306
 9728,0.07671479|H,0,-1.78518986,-0.23363379,0.93277394|H,0,-1.66220218
 ,-0.19108573,-0.89373311|H,0,-2.75060946,-1.44993395,-0.19015855|C,0,-
 4.43203352,1.28535342,0.03294758|H,0,-5.08474103,0.45446419,0.20175512
 |H,0,-4.00940712,1.79705557,0.8722615|H,0,-4.16871983,1.6454082,-0.939
 63992|H,0,-5.28236635,1.93441981,0.0563337||Version=IA32W-G09RevD.01|S
 tate=1-A|HF=-80.5111504|RMSD=7.894e-009|Dipole=-0.0013371,-0.0023099,0
 .0170034|Quadrupole=0.3561331,0.1092603,-0.4653934,-0.5711658,0.060235
 6,0.0429182|PG=C01 [X(C2H8)]||@


 IF YOU BELIEVE CERTAIN WORDS, YOU BELIEVE THEIR HIDDEN ARGUMENTS.
 WHEN YOU BELIEVE SOMETHING IS RIGHT OR WRONG, TRUE OR FALSE, 
 YOU BELIEVE THE ASSUMPTIONS IN THE WORDS WHICH EXPRESS THE ARGUMENTS.
 SUCH ASSUMPTIONS ARE OFTEN FULL OF HOLES, BUT REMAIN MOST PRECIOUS 
 TO THE CONVINCED.

                 -- THE OPEN-ENDED PROOF FROM THE PANOPLIA PROPHETICA
                    CHILDREN OF DUNE BY FRANK HERBERT
 Job cpu time:       0 days  0 hours  0 minutes  3.0 seconds.
 File lengths (MBytes):  RWF=      5 Int=      0 D2E=      0 Chk=      1 Scr=      1
 Normal termination of Gaussian 09 at Sun Mar 29 02:37:07 2026.
