 Entering Link 1 = C:\G09W\l1.exe PID=     15412.
  
 Copyright (c) 1988,1990,1992,1993,1995,1998,2003,2009,2013,
            Gaussian, Inc.  All Rights Reserved.
  
 This is part of the Gaussian(R) 09 program.  It is based on
 the Gaussian(R) 03 system (copyright 2003, Gaussian, Inc.),
 the Gaussian(R) 98 system (copyright 1998, Gaussian, Inc.),
 the Gaussian(R) 94 system (copyright 1995, Gaussian, Inc.),
 the Gaussian 92(TM) system (copyright 1992, Gaussian, Inc.),
 the Gaussian 90(TM) system (copyright 1990, Gaussian, Inc.),
 the Gaussian 88(TM) system (copyright 1988, Gaussian, Inc.),
 the Gaussian 86(TM) system (copyright 1986, Carnegie Mellon
 University), and the Gaussian 82(TM) system (copyright 1983,
 Carnegie Mellon University). Gaussian is a federally registered
 trademark of Gaussian, Inc.
  
 This software contains proprietary and confidential information,
 including trade secrets, belonging to Gaussian, Inc.
  
 This software is provided under written license and may be
 used, copied, transmitted, or stored only in accord with that
 written license.
  
 The following legend is applicable only to US Government
 contracts under FAR:
  
                    RESTRICTED RIGHTS LEGEND
  
 Use, reproduction and disclosure by the US Government is
 subject to restrictions as set forth in subparagraphs (a)
 and (c) of the Commercial Computer Software - Restricted
 Rights clause in FAR 52.227-19.
  
 Gaussian, Inc.
 340 Quinnipiac St., Bldg. 40, Wallingford CT 06492
  
  
 ---------------------------------------------------------------
 Warning -- This program may not be used in any manner that
 competes with the business of Gaussian, Inc. or will provide
 assistance to any competitor of Gaussian, Inc.  The licensee
 of this program is prohibited from giving any competitor of
 Gaussian, Inc. access to this program.  By using this program,
 the user acknowledges that Gaussian, Inc. is engaged in the
 business of creating and licensing software in the field of
 computational chemistry and represents and warrants to the
 licensee that it is not a competitor of Gaussian, Inc. and that
 it will not use this program in any manner prohibited above.
 ---------------------------------------------------------------
  

 Cite this work as:
 Gaussian 09, Revision D.01,
 M. J. Frisch, G. W. Trucks, H. B. Schlegel, G. E. Scuseria, 
 M. A. Robb, J. R. Cheeseman, G. Scalmani, V. Barone, B. Mennucci, 
 G. A. Petersson, H. Nakatsuji, M. Caricato, X. Li, H. P. Hratchian, 
 A. F. Izmaylov, J. Bloino, G. Zheng, J. L. Sonnenberg, M. Hada, 
 M. Ehara, K. Toyota, R. Fukuda, J. Hasegawa, M. Ishida, T. Nakajima, 
 Y. Honda, O. Kitao, H. Nakai, T. Vreven, J. A. Montgomery, Jr., 
 J. E. Peralta, F. Ogliaro, M. Bearpark, J. J. Heyd, E. Brothers, 
 K. N. Kudin, V. N. Staroverov, T. Keith, R. Kobayashi, J. Normand, 
 K. Raghavachari, A. Rendell, J. C. Burant, S. S. Iyengar, J. Tomasi, 
 M. Cossi, N. Rega, J. M. Millam, M. Klene, J. E. Knox, J. B. Cross, 
 V. Bakken, C. Adamo, J. Jaramillo, R. Gomperts, R. E. Stratmann, 
 O. Yazyev, A. J. Austin, R. Cammi, C. Pomelli, J. W. Ochterski, 
 R. L. Martin, K. Morokuma, V. G. Zakrzewski, G. A. Voth, 
 P. Salvador, J. J. Dannenberg, S. Dapprich, A. D. Daniels, 
 O. Farkas, J. B. Foresman, J. V. Ortiz, J. Cioslowski, 
 and D. J. Fox, Gaussian, Inc., Wallingford CT, 2013.
 
 ******************************************
 Gaussian 09:  IA32W-G09RevD.01 24-Apr-2013
                29-Mar-2026 
 ******************************************
 %chk=C:\Users\emman\Escritorio\quimica-enlaces\molecula\H2O.chk
 -------------------------------
 # b3lyp/3-21g geom=connectivity
 -------------------------------
 1/38=1,57=2/1;
 2/12=2,17=6,18=5,40=1/2;
 3/5=5,11=2,16=1,25=1,30=1,74=-5/1,2,3;
 4//1;
 5/5=2,38=5/2;
 6/7=2,8=2,9=2,10=2,28=1/1;
 99/5=1,9=1/99;
 ------------------------------------------------
 Title Card Required - Distancia +4.50A - Paso 18
 ------------------------------------------------
 Symbolic Z-matrix:
 Charge =  0 Multiplicity = 1
 C                    -2.07749  -0.63701  -0.01419 
 H                    -1.26791  -1.3307    0.07671 
 H                    -1.78519  -0.23363   0.93277 
 H                    -1.6622   -0.19109  -0.89373 
 H                    -2.75061  -1.44993  -0.19016 
 C                    -6.75626   3.18141   0.08697 
 H                    -7.40897   2.35052   0.25578 
 H                    -6.33364   3.69311   0.92629 
 H                    -6.49295   3.54147  -0.88562 
 H                    -7.6066    3.83048   0.11036 
 
                          Input orientation:                          
 ---------------------------------------------------------------------
 Center     Atomic      Atomic             Coordinates (Angstroms)
 Number     Number       Type             X           Y           Z
 ---------------------------------------------------------------------
      1          6           0       -2.077494   -0.637006   -0.014195
      2          1           0       -1.267909   -1.330697    0.076715
      3          1           0       -1.785190   -0.233634    0.932774
      4          1           0       -1.662202   -0.191086   -0.893733
      5          1           0       -2.750609   -1.449934   -0.190159
      6          6           0       -6.756264    3.181411    0.086972
      7          1           0       -7.408972    2.350522    0.255779
      8          1           0       -6.333638    3.693113    0.926286
      9          1           0       -6.492950    3.541466   -0.885616
     10          1           0       -7.606597    3.830477    0.110358
 ---------------------------------------------------------------------
                    Distance matrix (angstroms):
                    1          2          3          4          5
     1  C    0.000000
     2  H    1.070000   0.000000
     3  H    1.070000   1.484576   0.000000
     4  H    1.070000   1.547886   1.831137   0.000000
     5  H    1.070000   1.511237   1.916350   1.806750   0.000000
     6  C    6.039986   7.105017   6.090114   6.187486   6.129553
     7  H    6.117422   7.162128   6.226002   6.387997   6.028487
     8  H    6.144037   7.184848   6.008973   6.342064   6.366747
     9  H    6.141274   7.208683   6.302454   6.104763   6.277169
    10  H    7.109493   8.174216   7.147178   7.246861   7.180088
                    6          7          8          9         10
     6  C    0.000000
     7  H    1.070000   0.000000
     8  H    1.070000   1.846205   0.000000
     9  H    1.070000   1.886856   1.825203   0.000000
    10  H    1.070000   1.500157   1.518233   1.521742   0.000000
 Stoichiometry    C2H8
 Framework group  C1[X(C2H8)]
 Deg. of freedom    24
 Full point group                 C1      NOp   1
 Largest Abelian subgroup         C1      NOp   1
 Largest concise Abelian subgroup C1      NOp   1
                         Standard orientation:                         
 ---------------------------------------------------------------------
 Center     Atomic      Atomic             Coordinates (Angstroms)
 Number     Number       Type             X           Y           Z
 ---------------------------------------------------------------------
      1          6           0        3.020014    0.002364   -0.000615
      2          1           0        4.084108   -0.023153   -0.109946
      3          1           0        2.975128   -0.863244   -0.627997
      4          1           0        3.075050   -0.152624    1.056669
      5          1           0        3.015464    1.026301   -0.311151
      6          6           0       -3.019971    0.003260    0.002438
      7          1           0       -3.003311    0.874932   -0.617892
      8          1           0       -3.030516   -0.963888   -0.455181
      9          1           0       -3.026786    0.035765    1.071923
     10          1           0       -4.089397    0.032165   -0.017364
 ---------------------------------------------------------------------
 Rotational constants (GHZ):     72.9117229      1.6243250      1.6234774
 Standard basis: 3-21G (6D, 7F)
 There are    34 symmetry adapted cartesian basis functions of A   symmetry.
 There are    34 symmetry adapted basis functions of A   symmetry.
    34 basis functions,    54 primitive gaussians,    34 cartesian basis functions
    10 alpha electrons       10 beta electrons
       nuclear repulsion energy        35.9757599717 Hartrees.
 NAtoms=   10 NActive=   10 NUniq=   10 SFac= 1.00D+00 NAtFMM=   60 NAOKFM=F Big=F
 Integral buffers will be    262144 words long.
 Raffenetti 2 integral format.
 Two-electron integral symmetry is turned on.
 One-electron integrals computed using PRISM.
 NBasis=    34 RedAO= T EigKep=  2.90D-02  NBF=    34
 NBsUse=    34 1.00D-06 EigRej= -1.00D+00 NBFU=    34
 ExpMin= 1.83D-01 ExpMax= 1.72D+02 ExpMxC= 1.72D+02 IAcc=1 IRadAn=         1 AccDes= 0.00D+00
 Harris functional with IExCor=  402 and IRadAn=       1 diagonalized for initial guess.
 HarFok:  IExCor=  402 AccDes= 0.00D+00 IRadAn=         1 IDoV= 1 UseB2=F ITyADJ=14
 ICtDFT=  3500011 ScaDFX=  1.000000  1.000000  1.000000  1.000000
 FoFCou: FMM=F IPFlag=           0 FMFlag=      100000 FMFlg1=           0
         NFxFlg=           0 DoJE=T BraDBF=F KetDBF=T FulRan=T
         wScrn=  0.000000 ICntrl=     500 IOpCl=  0 I1Cent=   200000004 NGrid=           0
         NMat0=    1 NMatS0=      1 NMatT0=    0 NMatD0=    1 NMtDS0=    0 NMtDT0=    0
 Petite list used in FoFCou.
 Keep R1 ints in memory in canonical form, NReq=1056238.
 Requested convergence on RMS density matrix=1.00D-08 within 128 cycles.
 Requested convergence on MAX density matrix=1.00D-06.
 Requested convergence on             energy=1.00D-06.
 No special actions if energy rises.
 Integral accuracy reduced to 1.0D-05 until final iterations.
 Initial convergence to 1.0D-05 achieved.  Increase integral accuracy.
 SCF Done:  E(RB3LYP) =  -80.5147391110     A.U. after   10 cycles
            NFock= 10  Conv=0.18D-08     -V/T= 2.0060

 **********************************************************************

            Population analysis using the SCF density.

 **********************************************************************

 Orbital symmetries:
       Occupied  (A) (A) (A) (A) (A) (A) (A) (A) (A) (A)
       Virtual   (A) (A) (A) (A) (A) (A) (A) (A) (A) (A) (A) (A)
                 (A) (A) (A) (A) (A) (A) (A) (A) (A) (A) (A) (A)
 The electronic state is 1-A.
 Alpha  occ. eigenvalues --  -10.09106 -10.09105  -0.71611  -0.71609  -0.42323
 Alpha  occ. eigenvalues --   -0.41834  -0.40686  -0.40256  -0.33158  -0.33067
 Alpha virt. eigenvalues --    0.13501   0.13578   0.16711   0.16779   0.20460
 Alpha virt. eigenvalues --    0.20698   0.21342   0.21622   0.68444   0.68494
 Alpha virt. eigenvalues --    0.70283   0.70913   0.72918   0.74028   0.99495
 Alpha virt. eigenvalues --    0.99537   1.07825   1.08136   1.09076   1.09405
 Alpha virt. eigenvalues --    1.16179   1.16265   1.75269   1.75497
          Condensed to atoms (all electrons):
               1          2          3          4          5          6
     1  C    5.353844   0.309096   0.381336   0.377716   0.380809   0.000000
     2  H    0.309096   0.661925  -0.060467  -0.049841  -0.056238   0.000000
     3  H    0.381336  -0.060467   0.508463  -0.019710  -0.011551   0.000000
     4  H    0.377716  -0.049841  -0.019710   0.511963  -0.022345   0.000000
     5  H    0.380809  -0.056238  -0.011551  -0.022345   0.506192   0.000000
     6  C    0.000000   0.000000   0.000000   0.000000   0.000000   5.352456
     7  H    0.000000   0.000000   0.000000   0.000000   0.000000   0.381232
     8  H    0.000000   0.000000   0.000000   0.000000   0.000000   0.378202
     9  H    0.000000   0.000000   0.000000   0.000000   0.000000   0.380840
    10  H    0.000000   0.000000   0.000000   0.000000   0.000000   0.308757
               7          8          9         10
     1  C    0.000000   0.000000   0.000000   0.000000
     2  H    0.000000   0.000000   0.000000   0.000000
     3  H    0.000000   0.000000   0.000000   0.000000
     4  H    0.000000   0.000000   0.000000   0.000000
     5  H    0.000000   0.000000   0.000000   0.000000
     6  C    0.381232   0.378202   0.380840   0.308757
     7  H    0.507443  -0.018202  -0.014336  -0.057837
     8  H   -0.018202   0.513321  -0.020404  -0.054471
     9  H   -0.014336  -0.020404   0.505834  -0.054415
    10  H   -0.057837  -0.054471  -0.054415   0.662215
 Mulliken charges:
               1
     1  C   -0.802801
     2  H    0.195525
     3  H    0.201928
     4  H    0.202216
     5  H    0.203132
     6  C   -0.801486
     7  H    0.201700
     8  H    0.201554
     9  H    0.202481
    10  H    0.195751
 Sum of Mulliken charges =   0.00000
 Mulliken charges with hydrogens summed into heavy atoms:
               1
     1  C    0.000000
     6  C    0.000000
 Electronic spatial extent (au):  <R**2>=            760.0646
 Charge=              0.0000 electrons
 Dipole moment (field-independent basis, Debye):
    X=             -0.0018    Y=             -0.0142    Z=             -0.0481  Tot=              0.0502
 Quadrupole moment (field-independent basis, Debye-Ang):
   XX=             -8.6108   YY=            -15.6221   ZZ=            -15.8702
   XY=             -0.0617   XZ=             -0.0896   YZ=             -0.0019
 Traceless Quadrupole moment (field-independent basis, Debye-Ang):
   XX=              4.7569   YY=             -2.2544   ZZ=             -2.5025
   XY=             -0.0617   XZ=             -0.0896   YZ=             -0.0019
 Octapole moment (field-independent basis, Debye-Ang**2):
  XXX=             -0.1548  YYY=              0.1775  ZZZ=              1.4538  XYY=              0.6047
  XXY=             -0.0737  XXZ=             -0.7786  XZZ=             -0.5651  YZZ=             -0.2026
  YYZ=             -1.4593  XYZ=              0.6033
 Hexadecapole moment (field-independent basis, Debye-Ang**3):
 XXXX=           -894.6053 YYYY=            -28.3959 ZZZZ=            -28.2363 XXXY=             -0.9320
 XXXZ=             -1.4722 YYYX=              1.6567 YYYZ=              0.0671 ZZZX=             -0.1903
 ZZZY=             -0.0884 XXYY=           -158.3555 XXZZ=           -160.4337 YYZZ=             -9.5481
 XXYZ=             -0.0777 YYXZ=              0.2735 ZZXY=             -1.6025
 N-N= 3.597575997172D+01 E-N=-2.571118958946D+02  KE= 8.003286330734D+01
 1|1|UNPC-INANI_LAP|SP|RB3LYP|3-21G|C2H8|EMMAN|29-Mar-2026|0||# b3lyp/3
 -21g geom=connectivity||Title Card Required - Distancia +4.50A - Paso 
 18||0,1|C,0,-2.07749416,-0.63700562,-0.01419458|H,0,-1.26790947,-1.330
 69728,0.07671479|H,0,-1.78518986,-0.23363379,0.93277394|H,0,-1.6622021
 8,-0.19108573,-0.89373311|H,0,-2.75060946,-1.44993395,-0.19015855|C,0,
 -6.75626403,3.18141089,0.08697179|H,0,-7.40897154,2.35052166,0.2557793
 3|H,0,-6.33363763,3.69311304,0.92628571|H,0,-6.49295034,3.54146567,-0.
 88561571|H,0,-7.60659686,3.83047728,0.11035791||Version=IA32W-G09RevD.
 01|State=1-A|HF=-80.5147391|RMSD=1.775e-009|Dipole=-0.0024266,-0.00240
 53,0.0194439|Quadrupole=1.4523322,0.3741713,-1.8265035,-2.5686115,0.03
 5962,0.0639733|PG=C01 [X(C2H8)]||@


 IF YOU BELIEVE CERTAIN WORDS, YOU BELIEVE THEIR HIDDEN ARGUMENTS.
 WHEN YOU BELIEVE SOMETHING IS RIGHT OR WRONG, TRUE OR FALSE, 
 YOU BELIEVE THE ASSUMPTIONS IN THE WORDS WHICH EXPRESS THE ARGUMENTS.
 SUCH ASSUMPTIONS ARE OFTEN FULL OF HOLES, BUT REMAIN MOST PRECIOUS 
 TO THE CONVINCED.

                 -- THE OPEN-ENDED PROOF FROM THE PANOPLIA PROPHETICA
                    CHILDREN OF DUNE BY FRANK HERBERT
 Job cpu time:       0 days  0 hours  0 minutes  3.0 seconds.
 File lengths (MBytes):  RWF=      5 Int=      0 D2E=      0 Chk=      1 Scr=      1
 Normal termination of Gaussian 09 at Sun Mar 29 02:37:39 2026.
