 Entering Link 1 = C:\G09W\l1.exe PID=      6992.
  
 Copyright (c) 1988,1990,1992,1993,1995,1998,2003,2009,2013,
            Gaussian, Inc.  All Rights Reserved.
  
 This is part of the Gaussian(R) 09 program.  It is based on
 the Gaussian(R) 03 system (copyright 2003, Gaussian, Inc.),
 the Gaussian(R) 98 system (copyright 1998, Gaussian, Inc.),
 the Gaussian(R) 94 system (copyright 1995, Gaussian, Inc.),
 the Gaussian 92(TM) system (copyright 1992, Gaussian, Inc.),
 the Gaussian 90(TM) system (copyright 1990, Gaussian, Inc.),
 the Gaussian 88(TM) system (copyright 1988, Gaussian, Inc.),
 the Gaussian 86(TM) system (copyright 1986, Carnegie Mellon
 University), and the Gaussian 82(TM) system (copyright 1983,
 Carnegie Mellon University). Gaussian is a federally registered
 trademark of Gaussian, Inc.
  
 This software contains proprietary and confidential information,
 including trade secrets, belonging to Gaussian, Inc.
  
 This software is provided under written license and may be
 used, copied, transmitted, or stored only in accord with that
 written license.
  
 The following legend is applicable only to US Government
 contracts under FAR:
  
                    RESTRICTED RIGHTS LEGEND
  
 Use, reproduction and disclosure by the US Government is
 subject to restrictions as set forth in subparagraphs (a)
 and (c) of the Commercial Computer Software - Restricted
 Rights clause in FAR 52.227-19.
  
 Gaussian, Inc.
 340 Quinnipiac St., Bldg. 40, Wallingford CT 06492
  
  
 ---------------------------------------------------------------
 Warning -- This program may not be used in any manner that
 competes with the business of Gaussian, Inc. or will provide
 assistance to any competitor of Gaussian, Inc.  The licensee
 of this program is prohibited from giving any competitor of
 Gaussian, Inc. access to this program.  By using this program,
 the user acknowledges that Gaussian, Inc. is engaged in the
 business of creating and licensing software in the field of
 computational chemistry and represents and warrants to the
 licensee that it is not a competitor of Gaussian, Inc. and that
 it will not use this program in any manner prohibited above.
 ---------------------------------------------------------------
  

 Cite this work as:
 Gaussian 09, Revision D.01,
 M. J. Frisch, G. W. Trucks, H. B. Schlegel, G. E. Scuseria, 
 M. A. Robb, J. R. Cheeseman, G. Scalmani, V. Barone, B. Mennucci, 
 G. A. Petersson, H. Nakatsuji, M. Caricato, X. Li, H. P. Hratchian, 
 A. F. Izmaylov, J. Bloino, G. Zheng, J. L. Sonnenberg, M. Hada, 
 M. Ehara, K. Toyota, R. Fukuda, J. Hasegawa, M. Ishida, T. Nakajima, 
 Y. Honda, O. Kitao, H. Nakai, T. Vreven, J. A. Montgomery, Jr., 
 J. E. Peralta, F. Ogliaro, M. Bearpark, J. J. Heyd, E. Brothers, 
 K. N. Kudin, V. N. Staroverov, T. Keith, R. Kobayashi, J. Normand, 
 K. Raghavachari, A. Rendell, J. C. Burant, S. S. Iyengar, J. Tomasi, 
 M. Cossi, N. Rega, J. M. Millam, M. Klene, J. E. Knox, J. B. Cross, 
 V. Bakken, C. Adamo, J. Jaramillo, R. Gomperts, R. E. Stratmann, 
 O. Yazyev, A. J. Austin, R. Cammi, C. Pomelli, J. W. Ochterski, 
 R. L. Martin, K. Morokuma, V. G. Zakrzewski, G. A. Voth, 
 P. Salvador, J. J. Dannenberg, S. Dapprich, A. D. Daniels, 
 O. Farkas, J. B. Foresman, J. V. Ortiz, J. Cioslowski, 
 and D. J. Fox, Gaussian, Inc., Wallingford CT, 2013.
 
 ******************************************
 Gaussian 09:  IA32W-G09RevD.01 24-Apr-2013
                29-Mar-2026 
 ******************************************
 %chk=C:\Users\emman\Escritorio\quimica-enlaces\molecula\H2O.chk
 -------------------------------
 # b3lyp/3-21g geom=connectivity
 -------------------------------
 1/38=1,57=2/1;
 2/12=2,17=6,18=5,40=1/2;
 3/5=5,11=2,16=1,25=1,30=1,74=-5/1,2,3;
 4//1;
 5/5=2,38=5/2;
 6/7=2,8=2,9=2,10=2,28=1/1;
 99/5=1,9=1/99;
 ------------------------------------------------
 Title Card Required - Distancia +5.25A - Paso 21
 ------------------------------------------------
 Symbolic Z-matrix:
 Charge =  0 Multiplicity = 1
 C                    -2.07749  -0.63701  -0.01419 
 H                    -1.26791  -1.3307    0.07671 
 H                    -1.78519  -0.23363   0.93277 
 H                    -1.6622   -0.19109  -0.89373 
 H                    -2.75061  -1.44993  -0.19016 
 C                    -7.33732   3.65543   0.10048 
 H                    -7.99003   2.82454   0.26929 
 H                    -6.9147    4.16713   0.93979 
 H                    -7.07401   4.01548  -0.87211 
 H                    -8.18765   4.30449   0.12386 
 
                          Input orientation:                          
 ---------------------------------------------------------------------
 Center     Atomic      Atomic             Coordinates (Angstroms)
 Number     Number       Type             X           Y           Z
 ---------------------------------------------------------------------
      1          6           0       -2.077494   -0.637006   -0.014195
      2          1           0       -1.267909   -1.330697    0.076715
      3          1           0       -1.785190   -0.233634    0.932774
      4          1           0       -1.662202   -0.191086   -0.893733
      5          1           0       -2.750609   -1.449934   -0.190159
      6          6           0       -7.337322    3.655425    0.100478
      7          1           0       -7.990029    2.824536    0.269285
      8          1           0       -6.914695    4.167127    0.939792
      9          1           0       -7.074008    4.015480   -0.872110
     10          1           0       -8.187654    4.304492    0.123864
 ---------------------------------------------------------------------
                    Distance matrix (angstroms):
                    1          2          3          4          5
     1  C    0.000000
     2  H    1.070000   0.000000
     3  H    1.070000   1.484576   0.000000
     4  H    1.070000   1.547886   1.831137   0.000000
     5  H    1.070000   1.511237   1.916350   1.806750   0.000000
     6  C    6.789985   7.854919   6.829617   6.927560   6.869286
     7  H    6.857164   7.905058   6.949291   7.105489   6.777441
     8  H    6.883916   7.928251   6.758593   7.067144   7.082921
     9  H    6.880900   7.949381   7.020269   6.854437   7.001970
    10  H    7.859486   8.924150   7.889263   7.989196   7.922972
                    6          7          8          9         10
     6  C    0.000000
     7  H    1.070000   0.000000
     8  H    1.070000   1.846205   0.000000
     9  H    1.070000   1.886856   1.825203   0.000000
    10  H    1.070000   1.500157   1.518233   1.521742   0.000000
 Stoichiometry    C2H8
 Framework group  C1[X(C2H8)]
 Deg. of freedom    24
 Full point group                 C1      NOp   1
 Largest Abelian subgroup         C1      NOp   1
 Largest concise Abelian subgroup C1      NOp   1
                         Standard orientation:                         
 ---------------------------------------------------------------------
 Center     Atomic      Atomic             Coordinates (Angstroms)
 Number     Number       Type             X           Y           Z
 ---------------------------------------------------------------------
      1          6           0        3.395014    0.002351   -0.000649
      2          1           0        4.459097   -0.023198   -0.110074
      3          1           0        3.350047   -0.863261   -0.628020
      4          1           0        3.450139   -0.152630    1.056632
      5          1           0        3.390466    1.026286   -0.311193
      6          6           0       -3.394970    0.003273    0.002472
      7          1           0       -3.378341    0.874940   -0.617866
      8          1           0       -3.405584   -0.963878   -0.455138
      9          1           0       -3.401690    0.035787    1.071957
     10          1           0       -4.464397    0.032209   -0.017236
 ---------------------------------------------------------------------
 Rotational constants (GHZ):     72.9116705      1.2962441      1.2957043
 Standard basis: 3-21G (6D, 7F)
 There are    34 symmetry adapted cartesian basis functions of A   symmetry.
 There are    34 symmetry adapted basis functions of A   symmetry.
    34 basis functions,    54 primitive gaussians,    34 cartesian basis functions
    10 alpha electrons       10 beta electrons
       nuclear repulsion energy        35.0807124129 Hartrees.
 NAtoms=   10 NActive=   10 NUniq=   10 SFac= 1.00D+00 NAtFMM=   60 NAOKFM=F Big=F
 Integral buffers will be    262144 words long.
 Raffenetti 2 integral format.
 Two-electron integral symmetry is turned on.
 One-electron integrals computed using PRISM.
 NBasis=    34 RedAO= T EigKep=  2.90D-02  NBF=    34
 NBsUse=    34 1.00D-06 EigRej= -1.00D+00 NBFU=    34
 ExpMin= 1.83D-01 ExpMax= 1.72D+02 ExpMxC= 1.72D+02 IAcc=1 IRadAn=         1 AccDes= 0.00D+00
 Harris functional with IExCor=  402 and IRadAn=       1 diagonalized for initial guess.
 HarFok:  IExCor=  402 AccDes= 0.00D+00 IRadAn=         1 IDoV= 1 UseB2=F ITyADJ=14
 ICtDFT=  3500011 ScaDFX=  1.000000  1.000000  1.000000  1.000000
 FoFCou: FMM=F IPFlag=           0 FMFlag=      100000 FMFlg1=           0
         NFxFlg=           0 DoJE=T BraDBF=F KetDBF=T FulRan=T
         wScrn=  0.000000 ICntrl=     500 IOpCl=  0 I1Cent=   200000004 NGrid=           0
         NMat0=    1 NMatS0=      1 NMatT0=    0 NMatD0=    1 NMtDS0=    0 NMtDT0=    0
 Petite list used in FoFCou.
 Keep R1 ints in memory in canonical form, NReq=1056238.
 Requested convergence on RMS density matrix=1.00D-08 within 128 cycles.
 Requested convergence on MAX density matrix=1.00D-06.
 Requested convergence on             energy=1.00D-06.
 No special actions if energy rises.
 Integral accuracy reduced to 1.0D-05 until final iterations.
 Initial convergence to 1.0D-05 achieved.  Increase integral accuracy.
 SCF Done:  E(RB3LYP) =  -80.5148121729     A.U. after   10 cycles
            NFock= 10  Conv=0.15D-08     -V/T= 2.0060

 **********************************************************************

            Population analysis using the SCF density.

 **********************************************************************

 Orbital symmetries:
       Occupied  (A) (A) (A) (A) (A) (A) (A) (A) (A) (A)
       Virtual   (A) (A) (A) (A) (A) (A) (A) (A) (A) (A) (A) (A)
                 (A) (A) (A) (A) (A) (A) (A) (A) (A) (A) (A) (A)
 The electronic state is 1-A.
 Alpha  occ. eigenvalues --  -10.09158 -10.09158  -0.71664  -0.71663  -0.42379
 Alpha  occ. eigenvalues --   -0.41890  -0.40741  -0.40311  -0.33217  -0.33126
 Alpha virt. eigenvalues --    0.13450   0.13527   0.16659   0.16724   0.20409
 Alpha virt. eigenvalues --    0.20647   0.21290   0.21570   0.68387   0.68413
 Alpha virt. eigenvalues --    0.70226   0.70856   0.72861   0.73972   0.99444
 Alpha virt. eigenvalues --    0.99480   1.07773   1.08083   1.09023   1.09351
 Alpha virt. eigenvalues --    1.16129   1.16215   1.75215   1.75443
          Condensed to atoms (all electrons):
               1          2          3          4          5          6
     1  C    5.354847   0.309383   0.381240   0.377646   0.380720   0.000000
     2  H    0.309383   0.660758  -0.060349  -0.049751  -0.056128   0.000000
     3  H    0.381240  -0.060349   0.508312  -0.019711  -0.011558   0.000000
     4  H    0.377646  -0.049751  -0.019711   0.511765  -0.022343   0.000000
     5  H    0.380720  -0.056128  -0.011558  -0.022343   0.506020   0.000000
     6  C    0.000000   0.000000   0.000000   0.000000   0.000000   5.353459
     7  H    0.000000   0.000000   0.000000   0.000000   0.000000   0.381141
     8  H    0.000000   0.000000   0.000000   0.000000   0.000000   0.378121
     9  H    0.000000   0.000000   0.000000   0.000000   0.000000   0.380755
    10  H    0.000000   0.000000   0.000000   0.000000   0.000000   0.309047
               7          8          9         10
     1  C    0.000000   0.000000   0.000000   0.000000
     2  H    0.000000   0.000000   0.000000   0.000000
     3  H    0.000000   0.000000   0.000000   0.000000
     4  H    0.000000   0.000000   0.000000   0.000000
     5  H    0.000000   0.000000   0.000000   0.000000
     6  C    0.381141   0.378121   0.380755   0.309047
     7  H    0.507281  -0.018206  -0.014341  -0.057724
     8  H   -0.018206   0.513135  -0.020405  -0.054368
     9  H   -0.014341  -0.020405   0.505664  -0.054310
    10  H   -0.057724  -0.054368  -0.054310   0.661039
 Mulliken charges:
               1
     1  C   -0.803836
     2  H    0.196086
     3  H    0.202066
     4  H    0.202394
     5  H    0.203289
     6  C   -0.802524
     7  H    0.201849
     8  H    0.201723
     9  H    0.202636
    10  H    0.196316
 Sum of Mulliken charges =   0.00000
 Mulliken charges with hydrogens summed into heavy atoms:
               1
     1  C    0.000000
     6  C    0.000000
 Electronic spatial extent (au):  <R**2>=            936.6830
 Charge=              0.0000 electrons
 Dipole moment (field-independent basis, Debye):
    X=             -0.0018    Y=             -0.0142    Z=             -0.0483  Tot=              0.0504
 Quadrupole moment (field-independent basis, Debye-Ang):
   XX=             -7.3694   YY=            -15.6206   ZZ=            -15.8688
   XY=             -0.0681   XZ=             -0.0982   YZ=             -0.0019
 Traceless Quadrupole moment (field-independent basis, Debye-Ang):
   XX=              5.5835   YY=             -2.6677   ZZ=             -2.9159
   XY=             -0.0681   XZ=             -0.0982   YZ=             -0.0019
 Octapole moment (field-independent basis, Debye-Ang**2):
  XXX=             -0.1820  YYY=              0.1775  ZZZ=              1.4550  XYY=              0.6792
  XXY=             -0.0999  XXZ=             -0.9373  XZZ=             -0.6352  YZZ=             -0.2027
  YYZ=             -1.4605  XYZ=              0.6782
 Hexadecapole moment (field-independent basis, Debye-Ang**3):
 XXXX=          -1087.3398 YYYY=            -28.3917 ZZZZ=            -28.2321 XXXY=             -1.2311
 XXXZ=             -1.9332 YYYX=              1.8541 YYYZ=              0.0671 ZZZX=             -0.2181
 ZZZY=             -0.0884 XXYY=           -196.6001 XXZZ=           -199.2637 YYZZ=             -9.5468
 XXYZ=             -0.0900 YYXZ=              0.3051 ZZXY=             -1.7979
 N-N= 3.508071241291D+01 E-N=-2.553107975270D+02  KE= 8.003275507085D+01
 1|1|UNPC-INANI_LAP|SP|RB3LYP|3-21G|C2H8|EMMAN|29-Mar-2026|0||# b3lyp/3
 -21g geom=connectivity||Title Card Required - Distancia +5.25A - Paso 
 21||0,1|C,0,-2.07749416,-0.63700562,-0.01419458|H,0,-1.26790947,-1.330
 69728,0.07671479|H,0,-1.78518986,-0.23363379,0.93277394|H,0,-1.6622021
 8,-0.19108573,-0.89373311|H,0,-2.75060946,-1.44993395,-0.19015855|C,0,
 -7.33732165,3.65542526,0.10047784|H,0,-7.99002916,2.82453603,0.2692853
 8|H,0,-6.91469525,4.16712741,0.93979176|H,0,-7.07400796,4.01548004,-0.
 87210966|H,0,-8.18765448,4.30449165,0.12386396||Version=IA32W-G09RevD.
 01|State=1-A|HF=-80.5148122|RMSD=1.472e-009|Dipole=-0.0024503,-0.00241
 64,0.0195267|Quadrupole=1.6999514,0.4338579,-2.1338093,-3.0198759,0.02
 92569,0.0694317|PG=C01 [X(C2H8)]||@


 IF YOU BELIEVE CERTAIN WORDS, YOU BELIEVE THEIR HIDDEN ARGUMENTS.
 WHEN YOU BELIEVE SOMETHING IS RIGHT OR WRONG, TRUE OR FALSE, 
 YOU BELIEVE THE ASSUMPTIONS IN THE WORDS WHICH EXPRESS THE ARGUMENTS.
 SUCH ASSUMPTIONS ARE OFTEN FULL OF HOLES, BUT REMAIN MOST PRECIOUS 
 TO THE CONVINCED.

                 -- THE OPEN-ENDED PROOF FROM THE PANOPLIA PROPHETICA
                    CHILDREN OF DUNE BY FRANK HERBERT
 Job cpu time:       0 days  0 hours  0 minutes  3.0 seconds.
 File lengths (MBytes):  RWF=      5 Int=      0 D2E=      0 Chk=      1 Scr=      1
 Normal termination of Gaussian 09 at Sun Mar 29 02:37:46 2026.
