 Entering Link 1 = C:\G09W\l1.exe PID=      6564.
  
 Copyright (c) 1988,1990,1992,1993,1995,1998,2003,2009,2013,
            Gaussian, Inc.  All Rights Reserved.
  
 This is part of the Gaussian(R) 09 program.  It is based on
 the Gaussian(R) 03 system (copyright 2003, Gaussian, Inc.),
 the Gaussian(R) 98 system (copyright 1998, Gaussian, Inc.),
 the Gaussian(R) 94 system (copyright 1995, Gaussian, Inc.),
 the Gaussian 92(TM) system (copyright 1992, Gaussian, Inc.),
 the Gaussian 90(TM) system (copyright 1990, Gaussian, Inc.),
 the Gaussian 88(TM) system (copyright 1988, Gaussian, Inc.),
 the Gaussian 86(TM) system (copyright 1986, Carnegie Mellon
 University), and the Gaussian 82(TM) system (copyright 1983,
 Carnegie Mellon University). Gaussian is a federally registered
 trademark of Gaussian, Inc.
  
 This software contains proprietary and confidential information,
 including trade secrets, belonging to Gaussian, Inc.
  
 This software is provided under written license and may be
 used, copied, transmitted, or stored only in accord with that
 written license.
  
 The following legend is applicable only to US Government
 contracts under FAR:
  
                    RESTRICTED RIGHTS LEGEND
  
 Use, reproduction and disclosure by the US Government is
 subject to restrictions as set forth in subparagraphs (a)
 and (c) of the Commercial Computer Software - Restricted
 Rights clause in FAR 52.227-19.
  
 Gaussian, Inc.
 340 Quinnipiac St., Bldg. 40, Wallingford CT 06492
  
  
 ---------------------------------------------------------------
 Warning -- This program may not be used in any manner that
 competes with the business of Gaussian, Inc. or will provide
 assistance to any competitor of Gaussian, Inc.  The licensee
 of this program is prohibited from giving any competitor of
 Gaussian, Inc. access to this program.  By using this program,
 the user acknowledges that Gaussian, Inc. is engaged in the
 business of creating and licensing software in the field of
 computational chemistry and represents and warrants to the
 licensee that it is not a competitor of Gaussian, Inc. and that
 it will not use this program in any manner prohibited above.
 ---------------------------------------------------------------
  

 Cite this work as:
 Gaussian 09, Revision D.01,
 M. J. Frisch, G. W. Trucks, H. B. Schlegel, G. E. Scuseria, 
 M. A. Robb, J. R. Cheeseman, G. Scalmani, V. Barone, B. Mennucci, 
 G. A. Petersson, H. Nakatsuji, M. Caricato, X. Li, H. P. Hratchian, 
 A. F. Izmaylov, J. Bloino, G. Zheng, J. L. Sonnenberg, M. Hada, 
 M. Ehara, K. Toyota, R. Fukuda, J. Hasegawa, M. Ishida, T. Nakajima, 
 Y. Honda, O. Kitao, H. Nakai, T. Vreven, J. A. Montgomery, Jr., 
 J. E. Peralta, F. Ogliaro, M. Bearpark, J. J. Heyd, E. Brothers, 
 K. N. Kudin, V. N. Staroverov, T. Keith, R. Kobayashi, J. Normand, 
 K. Raghavachari, A. Rendell, J. C. Burant, S. S. Iyengar, J. Tomasi, 
 M. Cossi, N. Rega, J. M. Millam, M. Klene, J. E. Knox, J. B. Cross, 
 V. Bakken, C. Adamo, J. Jaramillo, R. Gomperts, R. E. Stratmann, 
 O. Yazyev, A. J. Austin, R. Cammi, C. Pomelli, J. W. Ochterski, 
 R. L. Martin, K. Morokuma, V. G. Zakrzewski, G. A. Voth, 
 P. Salvador, J. J. Dannenberg, S. Dapprich, A. D. Daniels, 
 O. Farkas, J. B. Foresman, J. V. Ortiz, J. Cioslowski, 
 and D. J. Fox, Gaussian, Inc., Wallingford CT, 2013.
 
 ******************************************
 Gaussian 09:  IA32W-G09RevD.01 24-Apr-2013
                29-Mar-2026 
 ******************************************
 %chk=C:\Users\emman\Escritorio\quimica-enlaces\molecula\H2O.chk
 -------------------------------
 # b3lyp/3-21g geom=connectivity
 -------------------------------
 1/38=1,57=2/1;
 2/12=2,17=6,18=5,40=1/2;
 3/5=5,11=2,16=1,25=1,30=1,74=-5/1,2,3;
 4//1;
 5/5=2,38=5/2;
 6/7=2,8=2,9=2,10=2,28=1/1;
 99/5=1,9=1/99;
 ------------------------------------------------
 Title Card Required - Distancia +5.00A - Paso 20
 ------------------------------------------------
 Symbolic Z-matrix:
 Charge =  0 Multiplicity = 1
 C                    -2.07749  -0.63701  -0.01419 
 H                    -1.26791  -1.3307    0.07671 
 H                    -1.78519  -0.23363   0.93277 
 H                    -1.6622   -0.19109  -0.89373 
 H                    -2.75061  -1.44993  -0.19016 
 C                    -7.14364   3.49742   0.09598 
 H                    -7.79634   2.66653   0.26478 
 H                    -6.72101   4.00912   0.93529 
 H                    -6.88032   3.85748  -0.87661 
 H                    -7.99397   4.14649   0.11936 
 
                          Input orientation:                          
 ---------------------------------------------------------------------
 Center     Atomic      Atomic             Coordinates (Angstroms)
 Number     Number       Type             X           Y           Z
 ---------------------------------------------------------------------
      1          6           0       -2.077494   -0.637006   -0.014195
      2          1           0       -1.267909   -1.330697    0.076715
      3          1           0       -1.785190   -0.233634    0.932774
      4          1           0       -1.662202   -0.191086   -0.893733
      5          1           0       -2.750609   -1.449934   -0.190159
      6          6           0       -7.143636    3.497420    0.095976
      7          1           0       -7.796343    2.666531    0.264783
      8          1           0       -6.721009    4.009123    0.935290
      9          1           0       -6.880322    3.857475   -0.876612
     10          1           0       -7.993969    4.146487    0.119362
 ---------------------------------------------------------------------
                    Distance matrix (angstroms):
                    1          2          3          4          5
     1  C    0.000000
     2  H    1.070000   0.000000
     3  H    1.070000   1.484576   0.000000
     4  H    1.070000   1.547886   1.831137   0.000000
     5  H    1.070000   1.511237   1.916350   1.806750   0.000000
     6  C    6.539985   7.604949   6.582852   6.680622   6.622452
     7  H    6.610327   7.657262   6.707543   6.865553   6.527763
     8  H    6.637037   7.680308   6.508710   6.824852   6.843392
     9  H    6.634100   7.702282   6.780223   6.604537   6.759759
    10  H    7.609488   8.674171   7.641729   7.741587   7.675190
                    6          7          8          9         10
     6  C    0.000000
     7  H    1.070000   0.000000
     8  H    1.070000   1.846205   0.000000
     9  H    1.070000   1.886856   1.825203   0.000000
    10  H    1.070000   1.500157   1.518233   1.521742   0.000000
 Stoichiometry    C2H8
 Framework group  C1[X(C2H8)]
 Deg. of freedom    24
 Full point group                 C1      NOp   1
 Largest Abelian subgroup         C1      NOp   1
 Largest concise Abelian subgroup C1      NOp   1
                         Standard orientation:                         
 ---------------------------------------------------------------------
 Center     Atomic      Atomic             Coordinates (Angstroms)
 Number     Number       Type             X           Y           Z
 ---------------------------------------------------------------------
      1          6           0        3.270014    0.002355   -0.000638
      2          1           0        4.334101   -0.023185   -0.110035
      3          1           0        3.225072   -0.863256   -0.628013
      4          1           0        3.325112   -0.152628    1.056643
      5          1           0        3.265466    1.026290   -0.311180
      6          6           0       -3.269970    0.003269    0.002462
      7          1           0       -3.253332    0.874938   -0.617874
      8          1           0       -3.280564   -0.963881   -0.455151
      9          1           0       -3.276720    0.035780    1.071946
     10          1           0       -4.339397    0.032196   -0.017275
 ---------------------------------------------------------------------
 Rotational constants (GHZ):     72.9116866      1.3936558      1.3930318
 Standard basis: 3-21G (6D, 7F)
 There are    34 symmetry adapted cartesian basis functions of A   symmetry.
 There are    34 symmetry adapted basis functions of A   symmetry.
    34 basis functions,    54 primitive gaussians,    34 cartesian basis functions
    10 alpha electrons       10 beta electrons
       nuclear repulsion energy        35.3572530104 Hartrees.
 NAtoms=   10 NActive=   10 NUniq=   10 SFac= 1.00D+00 NAtFMM=   60 NAOKFM=F Big=F
 Integral buffers will be    262144 words long.
 Raffenetti 2 integral format.
 Two-electron integral symmetry is turned on.
 One-electron integrals computed using PRISM.
 NBasis=    34 RedAO= T EigKep=  2.90D-02  NBF=    34
 NBsUse=    34 1.00D-06 EigRej= -1.00D+00 NBFU=    34
 ExpMin= 1.83D-01 ExpMax= 1.72D+02 ExpMxC= 1.72D+02 IAcc=1 IRadAn=         1 AccDes= 0.00D+00
 Harris functional with IExCor=  402 and IRadAn=       1 diagonalized for initial guess.
 HarFok:  IExCor=  402 AccDes= 0.00D+00 IRadAn=         1 IDoV= 1 UseB2=F ITyADJ=14
 ICtDFT=  3500011 ScaDFX=  1.000000  1.000000  1.000000  1.000000
 FoFCou: FMM=F IPFlag=           0 FMFlag=      100000 FMFlg1=           0
         NFxFlg=           0 DoJE=T BraDBF=F KetDBF=T FulRan=T
         wScrn=  0.000000 ICntrl=     500 IOpCl=  0 I1Cent=   200000004 NGrid=           0
         NMat0=    1 NMatS0=      1 NMatT0=    0 NMatD0=    1 NMtDS0=    0 NMtDT0=    0
 Petite list used in FoFCou.
 Keep R1 ints in memory in canonical form, NReq=1056238.
 Requested convergence on RMS density matrix=1.00D-08 within 128 cycles.
 Requested convergence on MAX density matrix=1.00D-06.
 Requested convergence on             energy=1.00D-06.
 No special actions if energy rises.
 Integral accuracy reduced to 1.0D-05 until final iterations.
 Initial convergence to 1.0D-05 achieved.  Increase integral accuracy.
 SCF Done:  E(RB3LYP) =  -80.5147918350     A.U. after   10 cycles
            NFock= 10  Conv=0.16D-08     -V/T= 2.0060

 **********************************************************************

            Population analysis using the SCF density.

 **********************************************************************

 Orbital symmetries:
       Occupied  (A) (A) (A) (A) (A) (A) (A) (A) (A) (A)
       Virtual   (A) (A) (A) (A) (A) (A) (A) (A) (A) (A) (A) (A)
                 (A) (A) (A) (A) (A) (A) (A) (A) (A) (A) (A) (A)
 The electronic state is 1-A.
 Alpha  occ. eigenvalues --  -10.09143 -10.09142  -0.71648  -0.71647  -0.42362
 Alpha  occ. eigenvalues --   -0.41873  -0.40724  -0.40295  -0.33200  -0.33108
 Alpha virt. eigenvalues --    0.13465   0.13542   0.16675   0.16739   0.20425
 Alpha virt. eigenvalues --    0.20662   0.21306   0.21586   0.68407   0.68433
 Alpha virt. eigenvalues --    0.70243   0.70873   0.72878   0.73988   0.99460
 Alpha virt. eigenvalues --    0.99496   1.07789   1.08099   1.09039   1.09367
 Alpha virt. eigenvalues --    1.16144   1.16230   1.75231   1.75459
          Condensed to atoms (all electrons):
               1          2          3          4          5          6
     1  C    5.354569   0.309301   0.381267   0.377666   0.380745   0.000000
     2  H    0.309301   0.661089  -0.060381  -0.049776  -0.056158   0.000000
     3  H    0.381267  -0.060381   0.508352  -0.019711  -0.011556   0.000000
     4  H    0.377666  -0.049776  -0.019711   0.511819  -0.022344   0.000000
     5  H    0.380745  -0.056158  -0.011556  -0.022344   0.506066   0.000000
     6  C    0.000000   0.000000   0.000000   0.000000   0.000000   5.353181
     7  H    0.000000   0.000000   0.000000   0.000000   0.000000   0.381167
     8  H    0.000000   0.000000   0.000000   0.000000   0.000000   0.378143
     9  H    0.000000   0.000000   0.000000   0.000000   0.000000   0.380779
    10  H    0.000000   0.000000   0.000000   0.000000   0.000000   0.308965
               7          8          9         10
     1  C    0.000000   0.000000   0.000000   0.000000
     2  H    0.000000   0.000000   0.000000   0.000000
     3  H    0.000000   0.000000   0.000000   0.000000
     4  H    0.000000   0.000000   0.000000   0.000000
     5  H    0.000000   0.000000   0.000000   0.000000
     6  C    0.381167   0.378143   0.380779   0.308965
     7  H    0.507324  -0.018205  -0.014339  -0.057756
     8  H   -0.018205   0.513185  -0.020404  -0.054397
     9  H   -0.014339  -0.020404   0.505710  -0.054339
    10  H   -0.057756  -0.054397  -0.054339   0.661372
 Mulliken charges:
               1
     1  C   -0.803548
     2  H    0.195926
     3  H    0.202029
     4  H    0.202346
     5  H    0.203247
     6  C   -0.802235
     7  H    0.201809
     8  H    0.201677
     9  H    0.202594
    10  H    0.196155
 Sum of Mulliken charges =   0.00000
 Mulliken charges with hydrogens summed into heavy atoms:
               1
     1  C    0.000000
     6  C    0.000000
 Electronic spatial extent (au):  <R**2>=            875.5770
 Charge=              0.0000 electrons
 Dipole moment (field-independent basis, Debye):
    X=             -0.0018    Y=             -0.0142    Z=             -0.0483  Tot=              0.0503
 Quadrupole moment (field-independent basis, Debye-Ang):
   XX=             -7.7817   YY=            -15.6210   ZZ=            -15.8692
   XY=             -0.0660   XZ=             -0.0954   YZ=             -0.0019
 Traceless Quadrupole moment (field-independent basis, Debye-Ang):
   XX=              5.3089   YY=             -2.5304   ZZ=             -2.7786
   XY=             -0.0660   XZ=             -0.0954   YZ=             -0.0019
 Octapole moment (field-independent basis, Debye-Ang**2):
  XXX=             -0.1728  YYY=              0.1775  ZZZ=              1.4547  XYY=              0.6543
  XXY=             -0.0907  XXZ=             -0.8830  XZZ=             -0.6118  YZZ=             -0.2027
  YYZ=             -1.4602  XYZ=              0.6533
 Hexadecapole moment (field-independent basis, Debye-Ang**3):
 XXXX=          -1021.6312 YYYY=            -28.3928 ZZZZ=            -28.2332 XXXY=             -1.1253
 XXXZ=             -1.7706 YYYX=              1.7883 YYYZ=              0.0671 ZZZX=             -0.2088
 ZZZY=             -0.0884 XXYY=           -183.3630 XXZZ=           -185.8237 YYZZ=             -9.5472
 XXYZ=             -0.0858 YYXZ=              0.2946 ZZXY=             -1.7328
 N-N= 3.535725301036D+01 E-N=-2.558671446273D+02  KE= 8.003278654358D+01
 1|1|UNPC-INANI_LAP|SP|RB3LYP|3-21G|C2H8|EMMAN|29-Mar-2026|0||# b3lyp/3
 -21g geom=connectivity||Title Card Required - Distancia +5.00A - Paso 
 20||0,1|C,0,-2.07749416,-0.63700562,-0.01419458|H,0,-1.26790947,-1.330
 69728,0.07671479|H,0,-1.78518986,-0.23363379,0.93277394|H,0,-1.6622021
 8,-0.19108573,-0.89373311|H,0,-2.75060946,-1.44993395,-0.19015855|C,0,
 -7.14363578,3.49742047,0.09597582|H,0,-7.79634329,2.66653124,0.2647833
 6|H,0,-6.72100938,4.00912262,0.93528974|H,0,-6.88032209,3.85747525,-0.
 87661168|H,0,-7.99396861,4.14648686,0.11936194||Version=IA32W-G09RevD.
 01|State=1-A|HF=-80.5147918|RMSD=1.560e-009|Dipole=-0.0024436,-0.00241
 31,0.0195033|Quadrupole=1.6176957,0.4140339,-2.0317295,-2.8699744,0.03
 14913,0.067615|PG=C01 [X(C2H8)]||@


 IF YOU BELIEVE CERTAIN WORDS, YOU BELIEVE THEIR HIDDEN ARGUMENTS.
 WHEN YOU BELIEVE SOMETHING IS RIGHT OR WRONG, TRUE OR FALSE, 
 YOU BELIEVE THE ASSUMPTIONS IN THE WORDS WHICH EXPRESS THE ARGUMENTS.
 SUCH ASSUMPTIONS ARE OFTEN FULL OF HOLES, BUT REMAIN MOST PRECIOUS 
 TO THE CONVINCED.

                 -- THE OPEN-ENDED PROOF FROM THE PANOPLIA PROPHETICA
                    CHILDREN OF DUNE BY FRANK HERBERT
 Job cpu time:       0 days  0 hours  0 minutes  2.0 seconds.
 File lengths (MBytes):  RWF=      5 Int=      0 D2E=      0 Chk=      1 Scr=      1
 Normal termination of Gaussian 09 at Sun Mar 29 02:37:43 2026.
