 Entering Link 1 = C:\G09W\l1.exe PID=     13616.
  
 Copyright (c) 1988,1990,1992,1993,1995,1998,2003,2009,2013,
            Gaussian, Inc.  All Rights Reserved.
  
 This is part of the Gaussian(R) 09 program.  It is based on
 the Gaussian(R) 03 system (copyright 2003, Gaussian, Inc.),
 the Gaussian(R) 98 system (copyright 1998, Gaussian, Inc.),
 the Gaussian(R) 94 system (copyright 1995, Gaussian, Inc.),
 the Gaussian 92(TM) system (copyright 1992, Gaussian, Inc.),
 the Gaussian 90(TM) system (copyright 1990, Gaussian, Inc.),
 the Gaussian 88(TM) system (copyright 1988, Gaussian, Inc.),
 the Gaussian 86(TM) system (copyright 1986, Carnegie Mellon
 University), and the Gaussian 82(TM) system (copyright 1983,
 Carnegie Mellon University). Gaussian is a federally registered
 trademark of Gaussian, Inc.
  
 This software contains proprietary and confidential information,
 including trade secrets, belonging to Gaussian, Inc.
  
 This software is provided under written license and may be
 used, copied, transmitted, or stored only in accord with that
 written license.
  
 The following legend is applicable only to US Government
 contracts under FAR:
  
                    RESTRICTED RIGHTS LEGEND
  
 Use, reproduction and disclosure by the US Government is
 subject to restrictions as set forth in subparagraphs (a)
 and (c) of the Commercial Computer Software - Restricted
 Rights clause in FAR 52.227-19.
  
 Gaussian, Inc.
 340 Quinnipiac St., Bldg. 40, Wallingford CT 06492
  
  
 ---------------------------------------------------------------
 Warning -- This program may not be used in any manner that
 competes with the business of Gaussian, Inc. or will provide
 assistance to any competitor of Gaussian, Inc.  The licensee
 of this program is prohibited from giving any competitor of
 Gaussian, Inc. access to this program.  By using this program,
 the user acknowledges that Gaussian, Inc. is engaged in the
 business of creating and licensing software in the field of
 computational chemistry and represents and warrants to the
 licensee that it is not a competitor of Gaussian, Inc. and that
 it will not use this program in any manner prohibited above.
 ---------------------------------------------------------------
  

 Cite this work as:
 Gaussian 09, Revision D.01,
 M. J. Frisch, G. W. Trucks, H. B. Schlegel, G. E. Scuseria, 
 M. A. Robb, J. R. Cheeseman, G. Scalmani, V. Barone, B. Mennucci, 
 G. A. Petersson, H. Nakatsuji, M. Caricato, X. Li, H. P. Hratchian, 
 A. F. Izmaylov, J. Bloino, G. Zheng, J. L. Sonnenberg, M. Hada, 
 M. Ehara, K. Toyota, R. Fukuda, J. Hasegawa, M. Ishida, T. Nakajima, 
 Y. Honda, O. Kitao, H. Nakai, T. Vreven, J. A. Montgomery, Jr., 
 J. E. Peralta, F. Ogliaro, M. Bearpark, J. J. Heyd, E. Brothers, 
 K. N. Kudin, V. N. Staroverov, T. Keith, R. Kobayashi, J. Normand, 
 K. Raghavachari, A. Rendell, J. C. Burant, S. S. Iyengar, J. Tomasi, 
 M. Cossi, N. Rega, J. M. Millam, M. Klene, J. E. Knox, J. B. Cross, 
 V. Bakken, C. Adamo, J. Jaramillo, R. Gomperts, R. E. Stratmann, 
 O. Yazyev, A. J. Austin, R. Cammi, C. Pomelli, J. W. Ochterski, 
 R. L. Martin, K. Morokuma, V. G. Zakrzewski, G. A. Voth, 
 P. Salvador, J. J. Dannenberg, S. Dapprich, A. D. Daniels, 
 O. Farkas, J. B. Foresman, J. V. Ortiz, J. Cioslowski, 
 and D. J. Fox, Gaussian, Inc., Wallingford CT, 2013.
 
 ******************************************
 Gaussian 09:  IA32W-G09RevD.01 24-Apr-2013
                29-Mar-2026 
 ******************************************
 %chk=C:\Users\emman\Escritorio\quimica-enlaces\molecula\H2O.chk
 -------------------------------
 # b3lyp/3-21g geom=connectivity
 -------------------------------
 1/38=1,57=2/1;
 2/12=2,17=6,18=5,40=1/2;
 3/5=5,11=2,16=1,25=1,30=1,74=-5/1,2,3;
 4//1;
 5/5=2,38=5/2;
 6/7=2,8=2,9=2,10=2,28=1/1;
 99/5=1,9=1/99;
 ------------------------------------------------
 Title Card Required - Distancia +4.00A - Paso 16
 ------------------------------------------------
 Symbolic Z-matrix:
 Charge =  0 Multiplicity = 1
 C                    -2.07749  -0.63701  -0.01419 
 H                    -1.26791  -1.3307    0.07671 
 H                    -1.78519  -0.23363   0.93277 
 H                    -1.6622   -0.19109  -0.89373 
 H                    -2.75061  -1.44993  -0.19016 
 C                    -6.36889   2.8654    0.07797 
 H                    -7.0216    2.03451   0.24678 
 H                    -5.94627   3.3771    0.91728 
 H                    -6.10558   3.22546  -0.89462 
 H                    -7.21923   3.51447   0.10135 
 
                          Input orientation:                          
 ---------------------------------------------------------------------
 Center     Atomic      Atomic             Coordinates (Angstroms)
 Number     Number       Type             X           Y           Z
 ---------------------------------------------------------------------
      1          6           0       -2.077494   -0.637006   -0.014195
      2          1           0       -1.267909   -1.330697    0.076715
      3          1           0       -1.785190   -0.233634    0.932774
      4          1           0       -1.662202   -0.191086   -0.893733
      5          1           0       -2.750609   -1.449934   -0.190159
      6          6           0       -6.368892    2.865401    0.077968
      7          1           0       -7.021600    2.034512    0.246775
      8          1           0       -5.946266    3.377103    0.917282
      9          1           0       -6.105579    3.225456   -0.894620
     10          1           0       -7.219225    3.514468    0.101354
 ---------------------------------------------------------------------
                    Distance matrix (angstroms):
                    1          2          3          4          5
     1  C    0.000000
     2  H    1.070000   0.000000
     3  H    1.070000   1.484576   0.000000
     4  H    1.070000   1.547886   1.831137   0.000000
     5  H    1.070000   1.511237   1.916350   1.806750   0.000000
     6  C    5.539986   6.605094   5.598664   5.695546   5.637906
     7  H    5.625770   6.667721   5.747614   5.914151   5.529343
     8  H    5.652266   6.690064   5.509285   5.862163   5.893974
     9  H    5.649710   6.716031   5.828416   5.605029   5.797530
    10  H    6.609499   7.674268   6.653440   6.752913   6.685715
                    6          7          8          9         10
     6  C    0.000000
     7  H    1.070000   0.000000
     8  H    1.070000   1.846205   0.000000
     9  H    1.070000   1.886856   1.825203   0.000000
    10  H    1.070000   1.500157   1.518233   1.521742   0.000000
 Stoichiometry    C2H8
 Framework group  C1[X(C2H8)]
 Deg. of freedom    24
 Full point group                 C1      NOp   1
 Largest Abelian subgroup         C1      NOp   1
 Largest concise Abelian subgroup C1      NOp   1
                         Standard orientation:                         
 ---------------------------------------------------------------------
 Center     Atomic      Atomic             Coordinates (Angstroms)
 Number     Number       Type             X           Y           Z
 ---------------------------------------------------------------------
      1          6           0        2.770014    0.002375   -0.000588
      2          1           0        3.834117   -0.023116   -0.109839
      3          1           0        2.725196   -0.863230   -0.627978
      4          1           0        2.824976   -0.152618    1.056700
      5          1           0        2.765462    1.026314   -0.311117
      6          6           0       -2.769971    0.003249    0.002411
      7          1           0       -2.753287    0.874926   -0.617912
      8          1           0       -2.780459   -0.963896   -0.455215
      9          1           0       -2.776867    0.035747    1.071895
     10          1           0       -3.839396    0.032128   -0.017471
 ---------------------------------------------------------------------
 Rotational constants (GHZ):     72.9117661      1.9169070      1.9157266
 Standard basis: 3-21G (6D, 7F)
 There are    34 symmetry adapted cartesian basis functions of A   symmetry.
 There are    34 symmetry adapted basis functions of A   symmetry.
    34 basis functions,    54 primitive gaussians,    34 cartesian basis functions
    10 alpha electrons       10 beta electrons
       nuclear repulsion energy        36.7000530067 Hartrees.
 NAtoms=   10 NActive=   10 NUniq=   10 SFac= 1.00D+00 NAtFMM=   60 NAOKFM=F Big=F
 Integral buffers will be    262144 words long.
 Raffenetti 2 integral format.
 Two-electron integral symmetry is turned on.
 One-electron integrals computed using PRISM.
 NBasis=    34 RedAO= T EigKep=  2.90D-02  NBF=    34
 NBsUse=    34 1.00D-06 EigRej= -1.00D+00 NBFU=    34
 ExpMin= 1.83D-01 ExpMax= 1.72D+02 ExpMxC= 1.72D+02 IAcc=1 IRadAn=         1 AccDes= 0.00D+00
 Harris functional with IExCor=  402 and IRadAn=       1 diagonalized for initial guess.
 HarFok:  IExCor=  402 AccDes= 0.00D+00 IRadAn=         1 IDoV= 1 UseB2=F ITyADJ=14
 ICtDFT=  3500011 ScaDFX=  1.000000  1.000000  1.000000  1.000000
 FoFCou: FMM=F IPFlag=           0 FMFlag=      100000 FMFlg1=           0
         NFxFlg=           0 DoJE=T BraDBF=F KetDBF=T FulRan=T
         wScrn=  0.000000 ICntrl=     500 IOpCl=  0 I1Cent=   200000004 NGrid=           0
         NMat0=    1 NMatS0=      1 NMatT0=    0 NMatD0=    1 NMtDS0=    0 NMtDT0=    0
 Petite list used in FoFCou.
 Keep R1 ints in memory in canonical form, NReq=1056238.
 Requested convergence on RMS density matrix=1.00D-08 within 128 cycles.
 Requested convergence on MAX density matrix=1.00D-06.
 Requested convergence on             energy=1.00D-06.
 No special actions if energy rises.
 Integral accuracy reduced to 1.0D-05 until final iterations.
 Initial convergence to 1.0D-05 achieved.  Increase integral accuracy.
 SCF Done:  E(RB3LYP) =  -80.5146619249     A.U. after   10 cycles
            NFock= 10  Conv=0.21D-08     -V/T= 2.0060

 **********************************************************************

            Population analysis using the SCF density.

 **********************************************************************

 Orbital symmetries:
       Occupied  (A) (A) (A) (A) (A) (A) (A) (A) (A) (A)
       Virtual   (A) (A) (A) (A) (A) (A) (A) (A) (A) (A) (A) (A)
                 (A) (A) (A) (A) (A) (A) (A) (A) (A) (A) (A) (A)
 The electronic state is 1-A.
 Alpha  occ. eigenvalues --  -10.09059 -10.09059  -0.71563  -0.71561  -0.42274
 Alpha  occ. eigenvalues --   -0.41785  -0.40637  -0.40208  -0.33106  -0.33012
 Alpha virt. eigenvalues --    0.13545   0.13623   0.16733   0.16854   0.20505
 Alpha virt. eigenvalues --    0.20743   0.21387   0.21667   0.68416   0.68651
 Alpha virt. eigenvalues --    0.70334   0.70964   0.72969   0.74079   0.99505
 Alpha virt. eigenvalues --    0.99626   1.07871   1.08182   1.09123   1.09452
 Alpha virt. eigenvalues --    1.16224   1.16310   1.75315   1.75546
          Condensed to atoms (all electrons):
               1          2          3          4          5          6
     1  C    5.352795   0.308808   0.381434   0.377788   0.380900   0.000000
     2  H    0.308808   0.663096  -0.060590  -0.049934  -0.056352   0.000000
     3  H    0.381434  -0.060590   0.508634  -0.019708  -0.011543   0.000000
     4  H    0.377788  -0.049934  -0.019708   0.512177  -0.022346   0.000000
     5  H    0.380900  -0.056352  -0.011543  -0.022346   0.506383   0.000000
     6  C    0.000000   0.000000   0.000000   0.000000   0.000000   5.351406
     7  H    0.000000   0.000000   0.000000   0.000000   0.000000   0.381325
     8  H    0.000000   0.000000   0.000000   0.000000   0.000000   0.378285
     9  H    0.000000   0.000000   0.000000   0.000000   0.000000   0.380925
    10  H    0.000000   0.000000   0.000000   0.000000   0.000000   0.308467
               7          8          9         10
     1  C    0.000000   0.000000   0.000000   0.000000
     2  H    0.000000   0.000000   0.000000   0.000000
     3  H    0.000000   0.000000   0.000000   0.000000
     4  H    0.000000   0.000000   0.000000   0.000000
     5  H    0.000000   0.000000   0.000000   0.000000
     6  C    0.381325   0.378285   0.380925   0.308467
     7  H    0.507624  -0.018198  -0.014332  -0.057954
     8  H   -0.018198   0.513524  -0.020402  -0.054577
     9  H   -0.014332  -0.020402   0.506023  -0.054523
    10  H   -0.057954  -0.054577  -0.054523   0.663391
 Mulliken charges:
               1
     1  C   -0.801725
     2  H    0.194972
     3  H    0.201772
     4  H    0.202023
     5  H    0.202958
     6  C   -0.800409
     7  H    0.201535
     8  H    0.201368
     9  H    0.202309
    10  H    0.195197
 Sum of Mulliken charges =   0.00000
 Mulliken charges with hydrogens summed into heavy atoms:
               1
     1  C    0.000000
     6  C    0.000000
 Electronic spatial extent (au):  <R**2>=            653.4867
 Charge=              0.0000 electrons
 Dipole moment (field-independent basis, Debye):
    X=             -0.0017    Y=             -0.0141    Z=             -0.0479  Tot=              0.0500
 Quadrupole moment (field-independent basis, Debye-Ang):
   XX=             -9.4481   YY=            -15.6237   ZZ=            -15.8718
   XY=             -0.0573   XZ=             -0.0837   YZ=             -0.0019
 Traceless Quadrupole moment (field-independent basis, Debye-Ang):
   XX=              4.1998   YY=             -1.9759   ZZ=             -2.2239
   XY=             -0.0573   XZ=             -0.0837   YZ=             -0.0019
 Octapole moment (field-independent basis, Debye-Ang**2):
  XXX=             -0.1376  YYY=              0.1775  ZZZ=              1.4525  XYY=              0.5551
  XXY=             -0.0585  XXZ=             -0.6798  XZZ=             -0.5183  YZZ=             -0.2024
  YYZ=             -1.4581  XYZ=              0.5533
 Hexadecapole moment (field-independent basis, Debye-Ang**3):
 XXXX=           -773.9469 YYYY=            -28.4008 ZZZZ=            -28.2411 XXXY=             -0.7618
 XXXZ=             -1.2075 YYYX=              1.5248 YYYZ=              0.0671 ZZZX=             -0.1717
 ZZZY=             -0.0883 XXYY=           -135.3044 XXZZ=           -137.0310 YYZZ=             -9.5496
 XXYZ=             -0.0698 YYXZ=              0.2523 ZZXY=             -1.4719
 N-N= 3.670005300673D+01 E-N=-2.585702822478D+02  KE= 8.003296714643D+01
 1|1|UNPC-INANI_LAP|SP|RB3LYP|3-21G|C2H8|EMMAN|29-Mar-2026|0||# b3lyp/3
 -21g geom=connectivity||Title Card Required - Distancia +4.00A - Paso 
 16||0,1|C,0,-2.07749416,-0.63700562,-0.01419458|H,0,-1.26790947,-1.330
 69728,0.07671479|H,0,-1.78518986,-0.23363379,0.93277394|H,0,-1.6622021
 8,-0.19108573,-0.89373311|H,0,-2.75060946,-1.44993395,-0.19015855|C,0,
 -6.36889228,2.86540131,0.07796776|H,0,-7.02159979,2.03451208,0.2467753
 |H,0,-5.94626588,3.37710346,0.91728168|H,0,-6.10557859,3.22545609,-0.8
 9461974|H,0,-7.21922511,3.5144677,0.10135388||Version=IA32W-G09RevD.01
 |State=1-A|HF=-80.5146619|RMSD=2.069e-009|Dipole=-0.0024061,-0.0023928
 ,0.0193611|Quadrupole=1.2854698,0.3339291,-1.6193989,-2.2645033,0.0404
 288,0.0603205|PG=C01 [X(C2H8)]||@


 IF YOU BELIEVE CERTAIN WORDS, YOU BELIEVE THEIR HIDDEN ARGUMENTS.
 WHEN YOU BELIEVE SOMETHING IS RIGHT OR WRONG, TRUE OR FALSE, 
 YOU BELIEVE THE ASSUMPTIONS IN THE WORDS WHICH EXPRESS THE ARGUMENTS.
 SUCH ASSUMPTIONS ARE OFTEN FULL OF HOLES, BUT REMAIN MOST PRECIOUS 
 TO THE CONVINCED.

                 -- THE OPEN-ENDED PROOF FROM THE PANOPLIA PROPHETICA
                    CHILDREN OF DUNE BY FRANK HERBERT
 Job cpu time:       0 days  0 hours  0 minutes  3.0 seconds.
 File lengths (MBytes):  RWF=      5 Int=      0 D2E=      0 Chk=      1 Scr=      1
 Normal termination of Gaussian 09 at Sun Mar 29 02:37:34 2026.
