 Entering Link 1 = C:\G09W\l1.exe PID=      5060.
  
 Copyright (c) 1988,1990,1992,1993,1995,1998,2003,2009,2013,
            Gaussian, Inc.  All Rights Reserved.
  
 This is part of the Gaussian(R) 09 program.  It is based on
 the Gaussian(R) 03 system (copyright 2003, Gaussian, Inc.),
 the Gaussian(R) 98 system (copyright 1998, Gaussian, Inc.),
 the Gaussian(R) 94 system (copyright 1995, Gaussian, Inc.),
 the Gaussian 92(TM) system (copyright 1992, Gaussian, Inc.),
 the Gaussian 90(TM) system (copyright 1990, Gaussian, Inc.),
 the Gaussian 88(TM) system (copyright 1988, Gaussian, Inc.),
 the Gaussian 86(TM) system (copyright 1986, Carnegie Mellon
 University), and the Gaussian 82(TM) system (copyright 1983,
 Carnegie Mellon University). Gaussian is a federally registered
 trademark of Gaussian, Inc.
  
 This software contains proprietary and confidential information,
 including trade secrets, belonging to Gaussian, Inc.
  
 This software is provided under written license and may be
 used, copied, transmitted, or stored only in accord with that
 written license.
  
 The following legend is applicable only to US Government
 contracts under FAR:
  
                    RESTRICTED RIGHTS LEGEND
  
 Use, reproduction and disclosure by the US Government is
 subject to restrictions as set forth in subparagraphs (a)
 and (c) of the Commercial Computer Software - Restricted
 Rights clause in FAR 52.227-19.
  
 Gaussian, Inc.
 340 Quinnipiac St., Bldg. 40, Wallingford CT 06492
  
  
 ---------------------------------------------------------------
 Warning -- This program may not be used in any manner that
 competes with the business of Gaussian, Inc. or will provide
 assistance to any competitor of Gaussian, Inc.  The licensee
 of this program is prohibited from giving any competitor of
 Gaussian, Inc. access to this program.  By using this program,
 the user acknowledges that Gaussian, Inc. is engaged in the
 business of creating and licensing software in the field of
 computational chemistry and represents and warrants to the
 licensee that it is not a competitor of Gaussian, Inc. and that
 it will not use this program in any manner prohibited above.
 ---------------------------------------------------------------
  

 Cite this work as:
 Gaussian 09, Revision D.01,
 M. J. Frisch, G. W. Trucks, H. B. Schlegel, G. E. Scuseria, 
 M. A. Robb, J. R. Cheeseman, G. Scalmani, V. Barone, B. Mennucci, 
 G. A. Petersson, H. Nakatsuji, M. Caricato, X. Li, H. P. Hratchian, 
 A. F. Izmaylov, J. Bloino, G. Zheng, J. L. Sonnenberg, M. Hada, 
 M. Ehara, K. Toyota, R. Fukuda, J. Hasegawa, M. Ishida, T. Nakajima, 
 Y. Honda, O. Kitao, H. Nakai, T. Vreven, J. A. Montgomery, Jr., 
 J. E. Peralta, F. Ogliaro, M. Bearpark, J. J. Heyd, E. Brothers, 
 K. N. Kudin, V. N. Staroverov, T. Keith, R. Kobayashi, J. Normand, 
 K. Raghavachari, A. Rendell, J. C. Burant, S. S. Iyengar, J. Tomasi, 
 M. Cossi, N. Rega, J. M. Millam, M. Klene, J. E. Knox, J. B. Cross, 
 V. Bakken, C. Adamo, J. Jaramillo, R. Gomperts, R. E. Stratmann, 
 O. Yazyev, A. J. Austin, R. Cammi, C. Pomelli, J. W. Ochterski, 
 R. L. Martin, K. Morokuma, V. G. Zakrzewski, G. A. Voth, 
 P. Salvador, J. J. Dannenberg, S. Dapprich, A. D. Daniels, 
 O. Farkas, J. B. Foresman, J. V. Ortiz, J. Cioslowski, 
 and D. J. Fox, Gaussian, Inc., Wallingford CT, 2013.
 
 ******************************************
 Gaussian 09:  IA32W-G09RevD.01 24-Apr-2013
                28-Mar-2026 
 ******************************************
 %chk=C:\Users\emman\Escritorio\quimica-enlaces\molecula\bn.chk
 --------------
 #p b3lyp/3-21g
 --------------
 1/38=1/1;
 2/12=2,17=6,18=5,40=1/2;
 3/5=5,11=2,16=1,25=1,30=1,74=-5/1,2,3;
 4//1;
 5/5=2,38=5/2;
 6/7=2,8=2,9=2,10=2,28=1/1;
 99/5=1,9=1/99;
 Leave Link    1 at Sat Mar 28 20:12:41 2026, MaxMem=           0 cpu:         0.0
 (Enter C:\G09W\l101.exe)
 ------------------------------------------------
 Title Card Required - Distancia +4.40A - Paso 22
 ------------------------------------------------
 Symbolic Z-matrix:
 Charge =  0 Multiplicity = 2
 Li                    4.64474   1.33044   0. 
 H                     3.11474   1.33044   0. 
 Be                    6.66772  -3.66558   0. 
 H                     5.47772  -3.66558   0. 
 
 NAtoms=      4 NQM=        4 NQMF=       0 NMMI=      0 NMMIF=      0
                NMic=       0 NMicF=      0.
                    Isotopes and Nuclear Properties:
 (Nuclear quadrupole moments (NQMom) in fm**2, nuclear magnetic moments (NMagM)
  in nuclear magnetons)

  Atom         1           2           3           4
 IAtWgt=           7           1           9           1
 AtmWgt=   7.0160045   1.0078250   9.0121825   1.0078250
 NucSpn=           3           1           3           1
 AtZEff=   0.0000000   0.0000000   0.0000000   0.0000000
 NQMom=   -4.0100000   0.0000000   5.2880000   0.0000000
 NMagM=    3.2564240   2.7928460  -1.1779000   2.7928460
 AtZNuc=   3.0000000   1.0000000   4.0000000   1.0000000
 Leave Link  101 at Sat Mar 28 20:12:41 2026, MaxMem=    33554432 cpu:         0.0
 (Enter C:\G09W\l202.exe)
                          Input orientation:                          
 ---------------------------------------------------------------------
 Center     Atomic      Atomic             Coordinates (Angstroms)
 Number     Number       Type             X           Y           Z
 ---------------------------------------------------------------------
      1          3           0        4.644740    1.330443    0.000000
      2          1           0        3.114740    1.330443    0.000000
      3          4           0        6.667724   -3.665582    0.000000
      4          1           0        5.477724   -3.665582    0.000000
 ---------------------------------------------------------------------
                    Distance matrix (angstroms):
                    1          2          3          4
     1  Li   0.000000
     2  H    1.530000   0.000000
     3  Be   5.390058   6.130576   0.000000
     4  H    5.064990   5.526659   1.190000   0.000000
 Stoichiometry    BeH2Li(2)
 Framework group  CS[SG(BeH2Li)]
 Deg. of freedom     5
 Full point group                 CS      NOp   2
 Largest Abelian subgroup         CS      NOp   2
 Largest concise Abelian subgroup C1      NOp   1
                         Standard orientation:                         
 ---------------------------------------------------------------------
 Center     Atomic      Atomic             Coordinates (Angstroms)
 Number     Number       Type             X           Y           Z
 ---------------------------------------------------------------------
      1          3           0        0.280129    2.881047    0.000000
      2          1           0       -1.138023    3.455284    0.000000
      3          4           0        0.280129   -2.509011    0.000000
      4          1           0       -0.822878   -2.062383    0.000000
 ---------------------------------------------------------------------
 Rotational constants (GHZ):    178.2775448      3.8492295      3.7678765
 Leave Link  202 at Sat Mar 28 20:12:41 2026, MaxMem=    33554432 cpu:         0.0
 (Enter C:\G09W\l301.exe)
 Standard basis: 3-21G (6D, 7F)
 Ernie: Thresh=  0.10000D-02 Tol=  0.10000D-05 Strict=F.
 There are    18 symmetry adapted cartesian basis functions of A'  symmetry.
 There are     4 symmetry adapted cartesian basis functions of A"  symmetry.
 There are    18 symmetry adapted basis functions of A'  symmetry.
 There are     4 symmetry adapted basis functions of A"  symmetry.
    22 basis functions,    36 primitive gaussians,    22 cartesian basis functions
     5 alpha electrons        4 beta electrons
       nuclear repulsion energy         4.7489206726 Hartrees.
 IExCor=  402 DFT=T Ex+Corr=B3LYP ExCW=0 ScaHFX=  0.200000
 ScaDFX=  0.800000  0.720000  1.000000  0.810000 ScalE2=  1.000000  1.000000
 IRadAn=      0 IRanWt=     -1 IRanGd=            0 ICorTp=0 IEmpDi=  4
 NAtoms=    4 NActive=    4 NUniq=    4 SFac= 1.00D+00 NAtFMM=   60 NAOKFM=F Big=F
 Integral buffers will be    262144 words long.
 Raffenetti 2 integral format.
 Two-electron integral symmetry is turned on.
 Leave Link  301 at Sat Mar 28 20:12:41 2026, MaxMem=    33554432 cpu:         0.0
 (Enter C:\G09W\l302.exe)
 NPDir=0 NMtPBC=     1 NCelOv=     1 NCel=       1 NClECP=     1 NCelD=      1
         NCelK=      1 NCelE2=     1 NClLst=     1 CellRange=     0.0.
 One-electron integrals computed using PRISM.
 NBasis=    22 RedAO= T EigKep=  9.32D-02  NBF=    18     4
 NBsUse=    22 1.00D-06 EigRej= -1.00D+00 NBFU=    18     4
 Precomputing XC quadrature grid using
 IXCGrd= 4 IRadAn=           0 IRanWt=          -1 IRanGd=           0 AccXCQ= 0.00D+00.
 Generated NRdTot=       0 NPtTot=           0 NUsed=           0 NTot=          16
 NSgBfM=    22    22    22    22    22 MxSgAt=     4 MxSgA2=     4.
 Leave Link  302 at Sat Mar 28 20:12:41 2026, MaxMem=    33554432 cpu:         0.0
 (Enter C:\G09W\l303.exe)
 DipDrv:  MaxL=1.
 Leave Link  303 at Sat Mar 28 20:12:41 2026, MaxMem=    33554432 cpu:         0.0
 (Enter C:\G09W\l401.exe)
 ExpMin= 2.86D-02 ExpMax= 7.19D+01 ExpMxC= 7.19D+01 IAcc=3 IRadAn=         5 AccDes= 0.00D+00
 Harris functional with IExCor=  402 and IRadAn=       5 diagonalized for initial guess.
 HarFok:  IExCor=  402 AccDes= 0.00D+00 IRadAn=         5 IDoV= 1 UseB2=F ITyADJ=14
 ICtDFT=  3500011 ScaDFX=  1.000000  1.000000  1.000000  1.000000
 FoFCou: FMM=F IPFlag=           0 FMFlag=      100000 FMFlg1=           0
         NFxFlg=           0 DoJE=T BraDBF=F KetDBF=T FulRan=T
         wScrn=  0.000000 ICntrl=     500 IOpCl=  0 I1Cent=   200000004 NGrid=           0
         NMat0=    1 NMatS0=      1 NMatT0=    0 NMatD0=    1 NMtDS0=    0 NMtDT0=    0
 Petite list used in FoFCou.
 Harris En= -23.2208440644275    
 JPrj=0 DoOrth=F DoCkMO=F.
 Initial guess orbital symmetries:
 Alpha Orbitals:
       Occupied  (A') (A') (A') (A') (A')
       Virtual   (A') (A") (A') (A") (A') (A') (A') (A") (A') (A')
                 (A') (A") (A') (A') (A') (A') (A')
 Beta  Orbitals:
       Occupied  (A') (A') (A') (A')
       Virtual   (A') (A') (A") (A') (A") (A') (A') (A') (A") (A')
                 (A') (A') (A") (A') (A') (A') (A') (A')
 The electronic state of the initial guess is 2-A'.
 Initial guess <Sx>= 0.0000 <Sy>= 0.0000 <Sz>= 0.5000 <S**2>= 0.7500 S= 0.5000
 Leave Link  401 at Sat Mar 28 20:12:41 2026, MaxMem=    33554432 cpu:         0.0
 (Enter C:\G09W\l502.exe)
 UHF open shell SCF:
 Using DIIS extrapolation, IDIIS=  1040.
 Integral symmetry usage will be decided dynamically.
 Keep R1 and R2 ints in memory in symmetry-blocked form, NReq=914551.
 IVT=       20170 IEndB=       20170 NGot=    33554432 MDV=    33495625
 LenX=    33495625 LenY=    33494700
 Requested convergence on RMS density matrix=1.00D-08 within 128 cycles.
 Requested convergence on MAX density matrix=1.00D-06.
 Requested convergence on             energy=1.00D-06.
 No special actions if energy rises.
 FoFCou: FMM=F IPFlag=           0 FMFlag=           0 FMFlg1=           0
         NFxFlg=           0 DoJE=F BraDBF=F KetDBF=F FulRan=T
         wScrn=  0.000000 ICntrl=     600 IOpCl=  0 I1Cent=           0 NGrid=           0
         NMat0=    1 NMatS0=    253 NMatT0=    0 NMatD0=    1 NMtDS0=    0 NMtDT0=    0
 Petite list used in FoFCou.

 Cycle   1  Pass 1  IDiag  1:
 E= -23.1323110188713    
 DIIS: error= 4.89D-02 at cycle   1 NSaved=   1.
 NSaved= 1 IEnMin= 1 EnMin= -23.1323110188713     IErMin= 1 ErrMin= 4.89D-02
 ErrMax= 4.89D-02  0.00D+00 EMaxC= 1.00D-01 BMatC= 1.06D-01 BMatP= 1.06D-01
 IDIUse=3 WtCom= 5.11D-01 WtEn= 4.89D-01
 Coeff-Com:  0.100D+01
 Coeff-En:   0.100D+01
 Coeff:      0.100D+01
 Gap=     0.151 Goal=   None    Shift=    0.000
 Gap=     0.015 Goal=   None    Shift=    0.000
 GapD=    0.015 DampG=0.250 DampE=0.500 DampFc=0.2500 IDamp=-1.
 Damping current iteration by 2.50D-01
 RMSDP=2.09D-02 MaxDP=1.79D-01              OVMax= 3.62D-01

 Cycle   2  Pass 1  IDiag  1:
 E= -23.1503408593905     Delta-E=       -0.018029840519 Rises=F Damp=T
 DIIS: error= 2.85D-02 at cycle   2 NSaved=   2.
 NSaved= 2 IEnMin= 2 EnMin= -23.1503408593905     IErMin= 2 ErrMin= 2.85D-02
 ErrMax= 2.85D-02  0.00D+00 EMaxC= 1.00D-01 BMatC= 4.02D-02 BMatP= 1.06D-01
 IDIUse=3 WtCom= 7.15D-01 WtEn= 2.85D-01
 Coeff-Com: -0.157D+01 0.257D+01
 Coeff-En:   0.000D+00 0.100D+01
 Coeff:     -0.112D+01 0.212D+01
 Gap=     0.127 Goal=   None    Shift=    0.000
 Gap=     0.124 Goal=   None    Shift=    0.000
 RMSDP=9.58D-03 MaxDP=9.54D-02 DE=-1.80D-02 OVMax= 1.66D-01

 Cycle   3  Pass 1  IDiag  1:
 E= -23.1884286921689     Delta-E=       -0.038087832778 Rises=F Damp=F
 DIIS: error= 4.08D-03 at cycle   3 NSaved=   3.
 NSaved= 3 IEnMin= 3 EnMin= -23.1884286921689     IErMin= 3 ErrMin= 4.08D-03
 ErrMax= 4.08D-03  0.00D+00 EMaxC= 1.00D-01 BMatC= 3.45D-04 BMatP= 4.02D-02
 IDIUse=3 WtCom= 9.59D-01 WtEn= 4.08D-02
 Coeff-Com: -0.388D+00 0.671D+00 0.717D+00
 Coeff-En:   0.000D+00 0.000D+00 0.100D+01
 Coeff:     -0.372D+00 0.644D+00 0.728D+00
 Gap=     0.138 Goal=   None    Shift=    0.000
 Gap=     0.134 Goal=   None    Shift=    0.000
 RMSDP=8.78D-04 MaxDP=7.90D-03 DE=-3.81D-02 OVMax= 1.17D-02

 Cycle   4  Pass 1  IDiag  1:
 E= -23.1886038221397     Delta-E=       -0.000175129971 Rises=F Damp=F
 DIIS: error= 1.31D-03 at cycle   4 NSaved=   4.
 NSaved= 4 IEnMin= 4 EnMin= -23.1886038221397     IErMin= 4 ErrMin= 1.31D-03
 ErrMax= 1.31D-03  0.00D+00 EMaxC= 1.00D-01 BMatC= 4.60D-05 BMatP= 3.45D-04
 IDIUse=3 WtCom= 9.87D-01 WtEn= 1.31D-02
 Coeff-Com: -0.896D-01 0.105D+00-0.141D+00 0.113D+01
 Coeff-En:   0.000D+00 0.000D+00 0.000D+00 0.100D+01
 Coeff:     -0.884D-01 0.103D+00-0.139D+00 0.112D+01
 Gap=     0.135 Goal=   None    Shift=    0.000
 Gap=     0.131 Goal=   None    Shift=    0.000
 RMSDP=2.82D-04 MaxDP=2.70D-03 DE=-1.75D-04 OVMax= 3.98D-03

 Cycle   5  Pass 1  IDiag  1:
 E= -23.1886315896864     Delta-E=       -0.000027767547 Rises=F Damp=F
 DIIS: error= 1.94D-04 at cycle   5 NSaved=   5.
 NSaved= 5 IEnMin= 5 EnMin= -23.1886315896864     IErMin= 5 ErrMin= 1.94D-04
 ErrMax= 1.94D-04  0.00D+00 EMaxC= 1.00D-01 BMatC= 1.13D-06 BMatP= 4.60D-05
 IDIUse=3 WtCom= 9.98D-01 WtEn= 1.94D-03
 Coeff-Com:  0.210D-02-0.226D-02-0.118D-01-0.218D+00 0.123D+01
 Coeff-En:   0.000D+00 0.000D+00 0.000D+00 0.000D+00 0.100D+01
 Coeff:      0.210D-02-0.226D-02-0.117D-01-0.218D+00 0.123D+01
 Gap=     0.134 Goal=   None    Shift=    0.000
 Gap=     0.131 Goal=   None    Shift=    0.000
 RMSDP=5.97D-05 MaxDP=4.46D-04 DE=-2.78D-05 OVMax= 1.15D-03

 Cycle   6  Pass 1  IDiag  1:
 E= -23.1886325541454     Delta-E=       -0.000000964459 Rises=F Damp=F
 DIIS: error= 2.13D-05 at cycle   6 NSaved=   6.
 NSaved= 6 IEnMin= 6 EnMin= -23.1886325541454     IErMin= 6 ErrMin= 2.13D-05
 ErrMax= 2.13D-05  0.00D+00 EMaxC= 1.00D-01 BMatC= 1.44D-08 BMatP= 1.13D-06
 IDIUse=1 WtCom= 1.00D+00 WtEn= 0.00D+00
 Coeff-Com: -0.334D-03 0.101D-02 0.160D-02-0.106D-01-0.106D+00 0.111D+01
 Coeff:     -0.334D-03 0.101D-02 0.160D-02-0.106D-01-0.106D+00 0.111D+01
 Gap=     0.134 Goal=   None    Shift=    0.000
 Gap=     0.130 Goal=   None    Shift=    0.000
 RMSDP=9.43D-06 MaxDP=7.36D-05 DE=-9.64D-07 OVMax= 1.71D-04

 Cycle   7  Pass 1  IDiag  1:
 E= -23.1886325707878     Delta-E=       -0.000000016642 Rises=F Damp=F
 DIIS: error= 2.29D-06 at cycle   7 NSaved=   7.
 NSaved= 7 IEnMin= 7 EnMin= -23.1886325707878     IErMin= 7 ErrMin= 2.29D-06
 ErrMax= 2.29D-06  0.00D+00 EMaxC= 1.00D-01 BMatC= 2.99D-10 BMatP= 1.44D-08
 IDIUse=1 WtCom= 1.00D+00 WtEn= 0.00D+00
 Coeff-Com:  0.438D-03-0.743D-03 0.597D-04 0.555D-02-0.276D-02-0.247D+00
 Coeff-Com:  0.124D+01
 Coeff:      0.438D-03-0.743D-03 0.597D-04 0.555D-02-0.276D-02-0.247D+00
 Coeff:      0.124D+01
 Gap=     0.134 Goal=   None    Shift=    0.000
 Gap=     0.130 Goal=   None    Shift=    0.000
 RMSDP=2.04D-06 MaxDP=1.98D-05 DE=-1.66D-08 OVMax= 5.90D-05

 Cycle   8  Pass 1  IDiag  1:
 E= -23.1886325715593     Delta-E=       -0.000000000771 Rises=F Damp=F
 DIIS: error= 1.47D-06 at cycle   8 NSaved=   8.
 NSaved= 8 IEnMin= 8 EnMin= -23.1886325715593     IErMin= 8 ErrMin= 1.47D-06
 ErrMax= 1.47D-06  0.00D+00 EMaxC= 1.00D-01 BMatC= 5.53D-11 BMatP= 2.99D-10
 IDIUse=1 WtCom= 1.00D+00 WtEn= 0.00D+00
 Coeff-Com:  0.226D-04-0.322D-04-0.178D-04-0.840D-04 0.346D-02 0.177D-01
 Coeff-Com: -0.377D+00 0.136D+01
 Coeff:      0.226D-04-0.322D-04-0.178D-04-0.840D-04 0.346D-02 0.177D-01
 Coeff:     -0.377D+00 0.136D+01
 Gap=     0.134 Goal=   None    Shift=    0.000
 Gap=     0.130 Goal=   None    Shift=    0.000
 RMSDP=6.65D-07 MaxDP=6.30D-06 DE=-7.71D-10 OVMax= 1.72D-05

 Cycle   9  Pass 1  IDiag  1:
 E= -23.1886325716355     Delta-E=       -0.000000000076 Rises=F Damp=F
 DIIS: error= 7.45D-08 at cycle   9 NSaved=   9.
 NSaved= 9 IEnMin= 9 EnMin= -23.1886325716355     IErMin= 9 ErrMin= 7.45D-08
 ErrMax= 7.45D-08  0.00D+00 EMaxC= 1.00D-01 BMatC= 3.42D-13 BMatP= 5.53D-11
 IDIUse=1 WtCom= 1.00D+00 WtEn= 0.00D+00
 Coeff-Com: -0.181D-04 0.291D-04-0.699D-06-0.140D-03-0.114D-03 0.900D-02
 Coeff-Com: -0.355D-01-0.227D-01 0.105D+01
 Coeff:     -0.181D-04 0.291D-04-0.699D-06-0.140D-03-0.114D-03 0.900D-02
 Coeff:     -0.355D-01-0.227D-01 0.105D+01
 Gap=     0.134 Goal=   None    Shift=    0.000
 Gap=     0.130 Goal=   None    Shift=    0.000
 RMSDP=6.29D-08 MaxDP=6.51D-07 DE=-7.62D-11 OVMax= 1.49D-06

 Cycle  10  Pass 1  IDiag  1:
 E= -23.1886325716362     Delta-E=       -0.000000000001 Rises=F Damp=F
 DIIS: error= 6.45D-08 at cycle  10 NSaved=  10.
 NSaved=10 IEnMin=10 EnMin= -23.1886325716362     IErMin=10 ErrMin= 6.45D-08
 ErrMax= 6.45D-08  0.00D+00 EMaxC= 1.00D-01 BMatC= 7.59D-14 BMatP= 3.42D-13
 IDIUse=1 WtCom= 1.00D+00 WtEn= 0.00D+00
 Coeff-Com: -0.302D-05 0.392D-05 0.236D-05 0.182D-04-0.796D-04-0.268D-02
 Coeff-Com:  0.232D-01-0.492D-01-0.273D+00 0.130D+01
 Coeff:     -0.302D-05 0.392D-05 0.236D-05 0.182D-04-0.796D-04-0.268D-02
 Coeff:      0.232D-01-0.492D-01-0.273D+00 0.130D+01
 Gap=     0.134 Goal=   None    Shift=    0.000
 Gap=     0.130 Goal=   None    Shift=    0.000
 RMSDP=1.97D-08 MaxDP=2.04D-07 DE=-7.46D-13 OVMax= 2.80D-07

 Cycle  11  Pass 1  IDiag  1:
 E= -23.1886325716363     Delta-E=        0.000000000000 Rises=F Damp=F
 DIIS: error= 1.94D-08 at cycle  11 NSaved=  11.
 NSaved=11 IEnMin=11 EnMin= -23.1886325716363     IErMin=11 ErrMin= 1.94D-08
 ErrMax= 1.94D-08  0.00D+00 EMaxC= 1.00D-01 BMatC= 5.37D-15 BMatP= 7.59D-14
 IDIUse=1 WtCom= 1.00D+00 WtEn= 0.00D+00
 Coeff-Com: -0.841D-07 0.192D-06-0.168D-05-0.494D-05 0.476D-04 0.523D-03
 Coeff-Com: -0.707D-02 0.201D-01 0.401D-01-0.417D+00 0.136D+01
 Coeff:     -0.841D-07 0.192D-06-0.168D-05-0.494D-05 0.476D-04 0.523D-03
 Coeff:     -0.707D-02 0.201D-01 0.401D-01-0.417D+00 0.136D+01
 Gap=     0.134 Goal=   None    Shift=    0.000
 Gap=     0.130 Goal=   None    Shift=    0.000
 RMSDP=5.18D-09 MaxDP=7.52D-08 DE=-3.55D-14 OVMax= 1.05D-07

 SCF Done:  E(UB3LYP) =  -23.1886325716     A.U. after   11 cycles
            NFock= 11  Conv=0.52D-08     -V/T= 2.0052
 <Sx>= 0.0000 <Sy>= 0.0000 <Sz>= 0.5000 <S**2>= 0.7505 S= 0.5003
 <L.S>= 0.000000000000E+00
 KE= 2.306868346968D+01 PE=-6.241549421339D+01 EE= 1.140925749946D+01
 Annihilation of the first spin contaminant:
 S**2 before annihilation     0.7505,   after     0.7500
 Leave Link  502 at Sat Mar 28 20:12:42 2026, MaxMem=    33554432 cpu:         1.0
 (Enter C:\G09W\l601.exe)
 Copying SCF densities to generalized density rwf, IOpCl= 1 IROHF=0.

 **********************************************************************

            Population analysis using the SCF density.

 **********************************************************************

 Orbital symmetries:
 Alpha Orbitals:
       Occupied  (A') (A') (A') (A') (A')
       Virtual   (A') (A") (A') (A") (A') (A') (A') (A") (A') (A')
                 (A') (A") (A') (A') (A') (A') (A')
 Beta  Orbitals:
       Occupied  (A') (A') (A') (A')
       Virtual   (A') (A') (A") (A') (A") (A') (A') (A') (A") (A')
                 (A') (A') (A") (A') (A') (A') (A') (A')
 The electronic state is 2-A'.
 Alpha  occ. eigenvalues --   -4.03534  -1.97605  -0.37078  -0.20388  -0.19672
 Alpha virt. eigenvalues --   -0.06242  -0.05404  -0.03861  -0.00435   0.00213
 Alpha virt. eigenvalues --    0.06712   0.11215   0.12162   0.12556   0.15337
 Alpha virt. eigenvalues --    0.25200   0.28659   0.29629   0.30953   0.45345
 Alpha virt. eigenvalues --    1.16983   1.19392
  Beta  occ. eigenvalues --   -4.02719  -1.97606  -0.35820  -0.19670
  Beta virt. eigenvalues --   -0.06627  -0.05007  -0.03272  -0.03021  -0.00402
  Beta virt. eigenvalues --    0.00525   0.06736   0.11279   0.12158   0.12717
  Beta virt. eigenvalues --    0.16626   0.25180   0.29681   0.30989   0.35506
  Beta virt. eigenvalues --    0.47393   1.17038   1.20950
          Condensed to atoms (all electrons):
               1          2          3          4
     1  Li   2.463428   0.379031   0.003375   0.000500
     2  H    0.379031   0.780062  -0.000018   0.000000
     3  Be   0.003375  -0.000018   3.500732   0.405591
     4  H    0.000500   0.000000   0.405591   0.678820
          Atomic-Atomic Spin Densities.
               1          2          3          4
     1  Li   0.000212   0.000017   0.002547  -0.000402
     2  H    0.000017   0.000166   0.000001   0.000000
     3  Be   0.002547   0.000001   0.932995  -0.011787
     4  H   -0.000402   0.000000  -0.011787   0.085876
 Mulliken charges and spin densities:
               1          2
     1  Li   0.153666   0.002374
     2  H   -0.159075   0.000184
     3  Be   0.090320   0.923755
     4  H   -0.084910   0.073687
 Sum of Mulliken charges =   0.00000   1.00000
 Mulliken charges and spin densities with hydrogens summed into heavy atoms:
               1          2
     1  Li  -0.005410   0.002558
     3  Be   0.005410   0.997442
 Electronic spatial extent (au):  <R**2>=            286.0063
 Charge=              0.0000 electrons
 Dipole moment (field-independent basis, Debye):
    X=              4.9853    Y=             -2.2235    Z=              0.0000  Tot=              5.4586
 Quadrupole moment (field-independent basis, Debye-Ang):
   XX=            -17.2153   YY=            -24.6554   ZZ=            -12.3774
   XY=             17.3165   XZ=              0.0000   YZ=              0.0000
 Traceless Quadrupole moment (field-independent basis, Debye-Ang):
   XX=              0.8674   YY=             -6.5727   ZZ=              5.7053
   XY=             17.3165   XZ=              0.0000   YZ=              0.0000
 Octapole moment (field-independent basis, Debye-Ang**2):
  XXX=              6.4177  YYY=            -65.0095  ZZZ=              0.0000  XYY=             45.3905
  XXY=              0.5408  XXZ=              0.0000  XZZ=              2.3497  YZZ=             -2.8032
  YYZ=              0.0000  XYZ=              0.0000
 Hexadecapole moment (field-independent basis, Debye-Ang**3):
 XXXX=            -66.3410 YYYY=           -887.7756 ZZZZ=            -29.5555 XXXY=             63.9493
 XXXZ=              0.0000 YYYX=            233.9917 YYYZ=              0.0000 ZZZX=              0.0000
 ZZZY=              0.0000 XXYY=           -158.2093 XXZZ=            -15.6076 YYZZ=           -112.2668
 XXYZ=              0.0000 YYXZ=              0.0000 ZZXY=             17.9962
 N-N= 4.748920672607D+00 E-N=-6.241549418784D+01  KE= 2.306868346968D+01
 Symmetry A'   KE= 2.306868346968D+01
 Symmetry A"   KE= 0.000000000000D+00
                          Isotropic Fermi Contact Couplings
        Atom                 a.u.       MegaHertz       Gauss      10(-4) cm-1
     1  Li(7)             -0.00006      -0.09887      -0.03528      -0.03298
     2  H(1)               0.00006       0.26683       0.09521       0.08901
     3  Be(9)              0.21687    -136.27993     -48.62807     -45.45809
     4  H(1)               0.03423     153.01408      54.59923      51.04000
 --------------------------------------------------------
       Center         ----  Spin Dipole Couplings  ----
                      3XX-RR        3YY-RR        3ZZ-RR
 --------------------------------------------------------
     1   Atom       -0.000753      0.001584     -0.000831
     2   Atom       -0.000365      0.000901     -0.000536
     3   Atom        0.097714     -0.037522     -0.060191
     4   Atom        0.020516     -0.007644     -0.012872
 --------------------------------------------------------
                        XY            XZ            YZ
 --------------------------------------------------------
     1   Atom       -0.000297      0.000000      0.000000
     2   Atom       -0.000461      0.000000      0.000000
     3   Atom       -0.059703      0.000000      0.000000
     4   Atom       -0.013190      0.000000      0.000000
 --------------------------------------------------------


 ---------------------------------------------------------------------------------
              Anisotropic Spin Dipole Couplings in Principal Axis System
 ---------------------------------------------------------------------------------

       Atom             a.u.   MegaHertz   Gauss  10(-4) cm-1        Axes

              Baa    -0.0008    -0.172    -0.061    -0.057  0.0000  0.0000  1.0000
     1 Li(7)  Bbb    -0.0008    -0.164    -0.058    -0.055  0.9923  0.1242  0.0000
              Bcc     0.0016     0.336     0.120     0.112 -0.1242  0.9923  0.0000
 
              Baa    -0.0005    -0.286    -0.102    -0.095  0.0000  0.0000  1.0000
     2 H(1)   Bbb    -0.0005    -0.275    -0.098    -0.092  0.9510  0.3093  0.0000
              Bcc     0.0011     0.561     0.200     0.187 -0.3093  0.9510  0.0000
 
              Baa    -0.0602     4.515     1.611     1.506  0.0000  0.0000  1.0000
     3 Be(9)  Bbb    -0.0601     4.509     1.609     1.504  0.3538  0.9353  0.0000
              Bcc     0.1203    -9.024    -3.220    -3.010  0.9353 -0.3538  0.0000
 
              Baa    -0.0129    -6.868    -2.451    -2.291  0.0000  0.0000  1.0000
     4 H(1)   Bbb    -0.0129    -6.860    -2.448    -2.288  0.3676  0.9300  0.0000
              Bcc     0.0257    13.728     4.898     4.579  0.9300 -0.3676  0.0000
 

 ---------------------------------------------------------------------------------

 No NMR shielding tensors so no spin-rotation constants.
 Leave Link  601 at Sat Mar 28 20:12:42 2026, MaxMem=    33554432 cpu:         0.0
 (Enter C:\G09W\l9999.exe)
 1|1|UNPC-INANI_LAP|SP|UB3LYP|3-21G|Be1H2Li1(2)|EMMAN|28-Mar-2026|0||#p
  b3lyp/3-21g||Title Card Required - Distancia +4.40A - Paso 22||0,2|Li
 ,0,4.64474019,1.33044279,0.|H,0,3.11474019,1.33044279,0.|Be,0,6.667724
 28,-3.66558202,0.|H,0,5.47772428,-3.66558202,0.||Version=IA32W-G09RevD
 .01|State=2-A'|HF=-23.1886326|S2=0.750534|S2-1=0.|S2A=0.75|RMSD=5.179e
 -009|Dipole=2.1462915,-0.0747014,0.|Quadrupole=-9.0918381,4.8500726,4.
 2417655,11.1716623,0.,0.|PG=CS [SG(Be1H2Li1)]||@


 MAN IS A SINGULAR CREATURE.  HE HAS A SET OF GIFTS
 WHICH MAKE HIM UNIQUE AMONG THE ANIMALS: SO THAT, 
 UNLIKE THEM, HE IS NOT A FIGURE IN THE LANDSCAPE --
 HE IS A SHAPER OF THE LANDSCAPE.

                       -- JACOB BRONOWSKI
 Job cpu time:       0 days  0 hours  0 minutes  1.0 seconds.
 File lengths (MBytes):  RWF=      5 Int=      0 D2E=      0 Chk=      1 Scr=      1
 Normal termination of Gaussian 09 at Sat Mar 28 20:12:42 2026.
