 Entering Link 1 = C:\G09W\l1.exe PID=      5524.
  
 Copyright (c) 1988,1990,1992,1993,1995,1998,2003,2009,2013,
            Gaussian, Inc.  All Rights Reserved.
  
 This is part of the Gaussian(R) 09 program.  It is based on
 the Gaussian(R) 03 system (copyright 2003, Gaussian, Inc.),
 the Gaussian(R) 98 system (copyright 1998, Gaussian, Inc.),
 the Gaussian(R) 94 system (copyright 1995, Gaussian, Inc.),
 the Gaussian 92(TM) system (copyright 1992, Gaussian, Inc.),
 the Gaussian 90(TM) system (copyright 1990, Gaussian, Inc.),
 the Gaussian 88(TM) system (copyright 1988, Gaussian, Inc.),
 the Gaussian 86(TM) system (copyright 1986, Carnegie Mellon
 University), and the Gaussian 82(TM) system (copyright 1983,
 Carnegie Mellon University). Gaussian is a federally registered
 trademark of Gaussian, Inc.
  
 This software contains proprietary and confidential information,
 including trade secrets, belonging to Gaussian, Inc.
  
 This software is provided under written license and may be
 used, copied, transmitted, or stored only in accord with that
 written license.
  
 The following legend is applicable only to US Government
 contracts under FAR:
  
                    RESTRICTED RIGHTS LEGEND
  
 Use, reproduction and disclosure by the US Government is
 subject to restrictions as set forth in subparagraphs (a)
 and (c) of the Commercial Computer Software - Restricted
 Rights clause in FAR 52.227-19.
  
 Gaussian, Inc.
 340 Quinnipiac St., Bldg. 40, Wallingford CT 06492
  
  
 ---------------------------------------------------------------
 Warning -- This program may not be used in any manner that
 competes with the business of Gaussian, Inc. or will provide
 assistance to any competitor of Gaussian, Inc.  The licensee
 of this program is prohibited from giving any competitor of
 Gaussian, Inc. access to this program.  By using this program,
 the user acknowledges that Gaussian, Inc. is engaged in the
 business of creating and licensing software in the field of
 computational chemistry and represents and warrants to the
 licensee that it is not a competitor of Gaussian, Inc. and that
 it will not use this program in any manner prohibited above.
 ---------------------------------------------------------------
  

 Cite this work as:
 Gaussian 09, Revision D.01,
 M. J. Frisch, G. W. Trucks, H. B. Schlegel, G. E. Scuseria, 
 M. A. Robb, J. R. Cheeseman, G. Scalmani, V. Barone, B. Mennucci, 
 G. A. Petersson, H. Nakatsuji, M. Caricato, X. Li, H. P. Hratchian, 
 A. F. Izmaylov, J. Bloino, G. Zheng, J. L. Sonnenberg, M. Hada, 
 M. Ehara, K. Toyota, R. Fukuda, J. Hasegawa, M. Ishida, T. Nakajima, 
 Y. Honda, O. Kitao, H. Nakai, T. Vreven, J. A. Montgomery, Jr., 
 J. E. Peralta, F. Ogliaro, M. Bearpark, J. J. Heyd, E. Brothers, 
 K. N. Kudin, V. N. Staroverov, T. Keith, R. Kobayashi, J. Normand, 
 K. Raghavachari, A. Rendell, J. C. Burant, S. S. Iyengar, J. Tomasi, 
 M. Cossi, N. Rega, J. M. Millam, M. Klene, J. E. Knox, J. B. Cross, 
 V. Bakken, C. Adamo, J. Jaramillo, R. Gomperts, R. E. Stratmann, 
 O. Yazyev, A. J. Austin, R. Cammi, C. Pomelli, J. W. Ochterski, 
 R. L. Martin, K. Morokuma, V. G. Zakrzewski, G. A. Voth, 
 P. Salvador, J. J. Dannenberg, S. Dapprich, A. D. Daniels, 
 O. Farkas, J. B. Foresman, J. V. Ortiz, J. Cioslowski, 
 and D. J. Fox, Gaussian, Inc., Wallingford CT, 2013.
 
 ******************************************
 Gaussian 09:  IA32W-G09RevD.01 24-Apr-2013
                28-Mar-2026 
 ******************************************
 %chk=C:\Users\emman\Escritorio\quimica-enlaces\molecula\bn.chk
 --------------
 #p b3lyp/3-21g
 --------------
 1/38=1/1;
 2/12=2,17=6,18=5,40=1/2;
 3/5=5,11=2,16=1,25=1,30=1,74=-5/1,2,3;
 4//1;
 5/5=2,38=5/2;
 6/7=2,8=2,9=2,10=2,28=1/1;
 99/5=1,9=1/99;
 Leave Link    1 at Sat Mar 28 20:12:43 2026, MaxMem=           0 cpu:         0.0
 (Enter C:\G09W\l101.exe)
 ------------------------------------------------
 Title Card Required - Distancia +4.80A - Paso 24
 ------------------------------------------------
 Symbolic Z-matrix:
 Charge =  0 Multiplicity = 2
 Li                    4.64474   1.33044   0. 
 H                     3.11474   1.33044   0. 
 Be                    6.8285   -4.03185   0. 
 H                     5.6385   -4.03185   0. 
 
 NAtoms=      4 NQM=        4 NQMF=       0 NMMI=      0 NMMIF=      0
                NMic=       0 NMicF=      0.
                    Isotopes and Nuclear Properties:
 (Nuclear quadrupole moments (NQMom) in fm**2, nuclear magnetic moments (NMagM)
  in nuclear magnetons)

  Atom         1           2           3           4
 IAtWgt=           7           1           9           1
 AtmWgt=   7.0160045   1.0078250   9.0121825   1.0078250
 NucSpn=           3           1           3           1
 AtZEff=   0.0000000   0.0000000   0.0000000   0.0000000
 NQMom=   -4.0100000   0.0000000   5.2880000   0.0000000
 NMagM=    3.2564240   2.7928460  -1.1779000   2.7928460
 AtZNuc=   3.0000000   1.0000000   4.0000000   1.0000000
 Leave Link  101 at Sat Mar 28 20:12:43 2026, MaxMem=    33554432 cpu:         0.0
 (Enter C:\G09W\l202.exe)
                          Input orientation:                          
 ---------------------------------------------------------------------
 Center     Atomic      Atomic             Coordinates (Angstroms)
 Number     Number       Type             X           Y           Z
 ---------------------------------------------------------------------
      1          3           0        4.644740    1.330443    0.000000
      2          1           0        3.114740    1.330443    0.000000
      3          4           0        6.828496   -4.031850    0.000000
      4          1           0        5.638496   -4.031850    0.000000
 ---------------------------------------------------------------------
                    Distance matrix (angstroms):
                    1          2          3          4
     1  Li   0.000000
     2  H    1.530000   0.000000
     3  Be   5.789903   6.522743   0.000000
     4  H    5.453599   5.926511   1.190000   0.000000
 Stoichiometry    BeH2Li(2)
 Framework group  CS[SG(BeH2Li)]
 Deg. of freedom     5
 Full point group                 CS      NOp   2
 Largest Abelian subgroup         CS      NOp   2
 Largest concise Abelian subgroup C1      NOp   1
                         Standard orientation:                         
 ---------------------------------------------------------------------
 Center     Atomic      Atomic             Coordinates (Angstroms)
 Number     Number       Type             X           Y           Z
 ---------------------------------------------------------------------
      1          3           0        0.279902    3.102625    0.000000
      2          1           0       -1.137101    3.679689    0.000000
      3          4           0        0.279902   -2.687278    0.000000
      4          1           0       -0.822211   -2.238450    0.000000
 ---------------------------------------------------------------------
 Rotational constants (GHZ):    178.3565048      3.3398702      3.2784780
 Leave Link  202 at Sat Mar 28 20:12:43 2026, MaxMem=    33554432 cpu:         0.0
 (Enter C:\G09W\l301.exe)
 Standard basis: 3-21G (6D, 7F)
 Ernie: Thresh=  0.10000D-02 Tol=  0.10000D-05 Strict=F.
 There are    18 symmetry adapted cartesian basis functions of A'  symmetry.
 There are     4 symmetry adapted cartesian basis functions of A"  symmetry.
 There are    18 symmetry adapted basis functions of A'  symmetry.
 There are     4 symmetry adapted basis functions of A"  symmetry.
    22 basis functions,    36 primitive gaussians,    22 cartesian basis functions
     5 alpha electrons        4 beta electrons
       nuclear repulsion energy         4.6180079302 Hartrees.
 IExCor=  402 DFT=T Ex+Corr=B3LYP ExCW=0 ScaHFX=  0.200000
 ScaDFX=  0.800000  0.720000  1.000000  0.810000 ScalE2=  1.000000  1.000000
 IRadAn=      0 IRanWt=     -1 IRanGd=            0 ICorTp=0 IEmpDi=  4
 NAtoms=    4 NActive=    4 NUniq=    4 SFac= 1.00D+00 NAtFMM=   60 NAOKFM=F Big=F
 Integral buffers will be    262144 words long.
 Raffenetti 2 integral format.
 Two-electron integral symmetry is turned on.
 Leave Link  301 at Sat Mar 28 20:12:43 2026, MaxMem=    33554432 cpu:         0.0
 (Enter C:\G09W\l302.exe)
 NPDir=0 NMtPBC=     1 NCelOv=     1 NCel=       1 NClECP=     1 NCelD=      1
         NCelK=      1 NCelE2=     1 NClLst=     1 CellRange=     0.0.
 One-electron integrals computed using PRISM.
 NBasis=    22 RedAO= T EigKep=  9.53D-02  NBF=    18     4
 NBsUse=    22 1.00D-06 EigRej= -1.00D+00 NBFU=    18     4
 Precomputing XC quadrature grid using
 IXCGrd= 4 IRadAn=           0 IRanWt=          -1 IRanGd=           0 AccXCQ= 0.00D+00.
 Generated NRdTot=       0 NPtTot=           0 NUsed=           0 NTot=          16
 NSgBfM=    22    22    22    22    22 MxSgAt=     4 MxSgA2=     4.
 Leave Link  302 at Sat Mar 28 20:12:43 2026, MaxMem=    33554432 cpu:         0.0
 (Enter C:\G09W\l303.exe)
 DipDrv:  MaxL=1.
 Leave Link  303 at Sat Mar 28 20:12:43 2026, MaxMem=    33554432 cpu:         0.0
 (Enter C:\G09W\l401.exe)
 ExpMin= 2.86D-02 ExpMax= 7.19D+01 ExpMxC= 7.19D+01 IAcc=3 IRadAn=         5 AccDes= 0.00D+00
 Harris functional with IExCor=  402 and IRadAn=       5 diagonalized for initial guess.
 HarFok:  IExCor=  402 AccDes= 0.00D+00 IRadAn=         5 IDoV= 1 UseB2=F ITyADJ=14
 ICtDFT=  3500011 ScaDFX=  1.000000  1.000000  1.000000  1.000000
 FoFCou: FMM=F IPFlag=           0 FMFlag=      100000 FMFlg1=           0
         NFxFlg=           0 DoJE=T BraDBF=F KetDBF=T FulRan=T
         wScrn=  0.000000 ICntrl=     500 IOpCl=  0 I1Cent=   200000004 NGrid=           0
         NMat0=    1 NMatS0=      1 NMatT0=    0 NMatD0=    1 NMtDS0=    0 NMtDT0=    0
 Petite list used in FoFCou.
 Harris En= -23.2208166243879    
 JPrj=0 DoOrth=F DoCkMO=F.
 Initial guess orbital symmetries:
 Alpha Orbitals:
       Occupied  (A') (A') (A') (A') (A')
       Virtual   (A') (A") (A') (A") (A') (A') (A') (A") (A') (A')
                 (A') (A") (A') (A') (A') (A') (A')
 Beta  Orbitals:
       Occupied  (A') (A') (A') (A')
       Virtual   (A') (A') (A") (A') (A") (A') (A') (A') (A") (A')
                 (A') (A') (A") (A') (A') (A') (A') (A')
 The electronic state of the initial guess is 2-A'.
 Initial guess <Sx>= 0.0000 <Sy>= 0.0000 <Sz>= 0.5000 <S**2>= 0.7500 S= 0.5000
 Leave Link  401 at Sat Mar 28 20:12:44 2026, MaxMem=    33554432 cpu:         1.0
 (Enter C:\G09W\l502.exe)
 UHF open shell SCF:
 Using DIIS extrapolation, IDIIS=  1040.
 Integral symmetry usage will be decided dynamically.
 Keep R1 and R2 ints in memory in symmetry-blocked form, NReq=914551.
 IVT=       20170 IEndB=       20170 NGot=    33554432 MDV=    33495625
 LenX=    33495625 LenY=    33494700
 Requested convergence on RMS density matrix=1.00D-08 within 128 cycles.
 Requested convergence on MAX density matrix=1.00D-06.
 Requested convergence on             energy=1.00D-06.
 No special actions if energy rises.
 FoFCou: FMM=F IPFlag=           0 FMFlag=           0 FMFlg1=           0
         NFxFlg=           0 DoJE=F BraDBF=F KetDBF=F FulRan=T
         wScrn=  0.000000 ICntrl=     600 IOpCl=  0 I1Cent=           0 NGrid=           0
         NMat0=    1 NMatS0=    253 NMatT0=    0 NMatD0=    1 NMtDS0=    0 NMtDT0=    0
 Petite list used in FoFCou.

 Cycle   1  Pass 1  IDiag  1:
 E= -23.1325688294566    
 DIIS: error= 4.92D-02 at cycle   1 NSaved=   1.
 NSaved= 1 IEnMin= 1 EnMin= -23.1325688294566     IErMin= 1 ErrMin= 4.92D-02
 ErrMax= 4.92D-02  0.00D+00 EMaxC= 1.00D-01 BMatC= 1.06D-01 BMatP= 1.06D-01
 IDIUse=3 WtCom= 5.08D-01 WtEn= 4.92D-01
 Coeff-Com:  0.100D+01
 Coeff-En:   0.100D+01
 Coeff:      0.100D+01
 Gap=     0.153 Goal=   None    Shift=    0.000
 Gap=     0.018 Goal=   None    Shift=    0.000
 GapD=    0.018 DampG=0.250 DampE=0.500 DampFc=0.2500 IDamp=-1.
 Damping current iteration by 2.50D-01
 RMSDP=2.08D-02 MaxDP=1.79D-01              OVMax= 3.58D-01

 Cycle   2  Pass 1  IDiag  1:
 E= -23.1505626440209     Delta-E=       -0.017993814564 Rises=F Damp=T
 DIIS: error= 2.88D-02 at cycle   2 NSaved=   2.
 NSaved= 2 IEnMin= 2 EnMin= -23.1505626440209     IErMin= 2 ErrMin= 2.88D-02
 ErrMax= 2.88D-02  0.00D+00 EMaxC= 1.00D-01 BMatC= 4.02D-02 BMatP= 1.06D-01
 IDIUse=3 WtCom= 7.12D-01 WtEn= 2.88D-01
 Coeff-Com: -0.157D+01 0.257D+01
 Coeff-En:   0.000D+00 0.100D+01
 Coeff:     -0.112D+01 0.212D+01
 Gap=     0.130 Goal=   None    Shift=    0.000
 Gap=     0.126 Goal=   None    Shift=    0.000
 RMSDP=9.64D-03 MaxDP=9.90D-02 DE=-1.80D-02 OVMax= 1.61D-01

 Cycle   3  Pass 1  IDiag  1:
 E= -23.1884779988215     Delta-E=       -0.037915354801 Rises=F Damp=F
 DIIS: error= 4.11D-03 at cycle   3 NSaved=   3.
 NSaved= 3 IEnMin= 3 EnMin= -23.1884779988215     IErMin= 3 ErrMin= 4.11D-03
 ErrMax= 4.11D-03  0.00D+00 EMaxC= 1.00D-01 BMatC= 3.46D-04 BMatP= 4.02D-02
 IDIUse=3 WtCom= 9.59D-01 WtEn= 4.11D-02
 Coeff-Com: -0.369D+00 0.644D+00 0.725D+00
 Coeff-En:   0.000D+00 0.000D+00 0.100D+01
 Coeff:     -0.354D+00 0.617D+00 0.737D+00
 Gap=     0.141 Goal=   None    Shift=    0.000
 Gap=     0.136 Goal=   None    Shift=    0.000
 RMSDP=8.96D-04 MaxDP=7.89D-03 DE=-3.79D-02 OVMax= 1.25D-02

 Cycle   4  Pass 1  IDiag  1:
 E= -23.1886603840651     Delta-E=       -0.000182385244 Rises=F Damp=F
 DIIS: error= 1.25D-03 at cycle   4 NSaved=   4.
 NSaved= 4 IEnMin= 4 EnMin= -23.1886603840651     IErMin= 4 ErrMin= 1.25D-03
 ErrMax= 1.25D-03  0.00D+00 EMaxC= 1.00D-01 BMatC= 4.20D-05 BMatP= 3.46D-04
 IDIUse=3 WtCom= 9.87D-01 WtEn= 1.25D-02
 Coeff-Com: -0.884D-01 0.104D+00-0.134D+00 0.112D+01
 Coeff-En:   0.000D+00 0.000D+00 0.000D+00 0.100D+01
 Coeff:     -0.873D-01 0.103D+00-0.132D+00 0.112D+01
 Gap=     0.138 Goal=   None    Shift=    0.000
 Gap=     0.133 Goal=   None    Shift=    0.000
 RMSDP=2.69D-04 MaxDP=2.56D-03 DE=-1.82D-04 OVMax= 3.80D-03

 Cycle   5  Pass 1  IDiag  1:
 E= -23.1886855629192     Delta-E=       -0.000025178854 Rises=F Damp=F
 DIIS: error= 1.83D-04 at cycle   5 NSaved=   5.
 NSaved= 5 IEnMin= 5 EnMin= -23.1886855629192     IErMin= 5 ErrMin= 1.83D-04
 ErrMax= 1.83D-04  0.00D+00 EMaxC= 1.00D-01 BMatC= 1.03D-06 BMatP= 4.20D-05
 IDIUse=3 WtCom= 9.98D-01 WtEn= 1.83D-03
 Coeff-Com:  0.201D-02-0.228D-02-0.125D-01-0.218D+00 0.123D+01
 Coeff-En:   0.000D+00 0.000D+00 0.000D+00 0.000D+00 0.100D+01
 Coeff:      0.201D-02-0.228D-02-0.125D-01-0.217D+00 0.123D+01
 Gap=     0.137 Goal=   None    Shift=    0.000
 Gap=     0.133 Goal=   None    Shift=    0.000
 RMSDP=5.71D-05 MaxDP=4.08D-04 DE=-2.52D-05 OVMax= 1.12D-03

 Cycle   6  Pass 1  IDiag  1:
 E= -23.1886864529650     Delta-E=       -0.000000890046 Rises=F Damp=F
 DIIS: error= 2.11D-05 at cycle   6 NSaved=   6.
 NSaved= 6 IEnMin= 6 EnMin= -23.1886864529650     IErMin= 6 ErrMin= 2.11D-05
 ErrMax= 2.11D-05  0.00D+00 EMaxC= 1.00D-01 BMatC= 1.40D-08 BMatP= 1.03D-06
 IDIUse=1 WtCom= 1.00D+00 WtEn= 0.00D+00
 Coeff-Com: -0.368D-03 0.108D-02 0.143D-02-0.138D-01-0.935D-01 0.111D+01
 Coeff:     -0.368D-03 0.108D-02 0.143D-02-0.138D-01-0.935D-01 0.111D+01
 Gap=     0.137 Goal=   None    Shift=    0.000
 Gap=     0.133 Goal=   None    Shift=    0.000
 RMSDP=9.11D-06 MaxDP=7.24D-05 DE=-8.90D-07 OVMax= 1.54D-04

 Cycle   7  Pass 1  IDiag  1:
 E= -23.1886864683863     Delta-E=       -0.000000015421 Rises=F Damp=F
 DIIS: error= 1.99D-06 at cycle   7 NSaved=   7.
 NSaved= 7 IEnMin= 7 EnMin= -23.1886864683863     IErMin= 7 ErrMin= 1.99D-06
 ErrMax= 1.99D-06  0.00D+00 EMaxC= 1.00D-01 BMatC= 2.48D-10 BMatP= 1.40D-08
 IDIUse=1 WtCom= 1.00D+00 WtEn= 0.00D+00
 Coeff-Com:  0.414D-03-0.699D-03 0.111D-03 0.562D-02-0.624D-02-0.220D+00
 Coeff-Com:  0.122D+01
 Coeff:      0.414D-03-0.699D-03 0.111D-03 0.562D-02-0.624D-02-0.220D+00
 Coeff:      0.122D+01
 Gap=     0.137 Goal=   None    Shift=    0.000
 Gap=     0.133 Goal=   None    Shift=    0.000
 RMSDP=1.83D-06 MaxDP=1.75D-05 DE=-1.54D-08 OVMax= 5.16D-05

 Cycle   8  Pass 1  IDiag  1:
 E= -23.1886864690077     Delta-E=       -0.000000000621 Rises=F Damp=F
 DIIS: error= 1.33D-06 at cycle   8 NSaved=   8.
 NSaved= 8 IEnMin= 8 EnMin= -23.1886864690077     IErMin= 8 ErrMin= 1.33D-06
 ErrMax= 1.33D-06  0.00D+00 EMaxC= 1.00D-01 BMatC= 4.84D-11 BMatP= 2.48D-10
 IDIUse=1 WtCom= 1.00D+00 WtEn= 0.00D+00
 Coeff-Com:  0.251D-04-0.366D-04-0.297D-04-0.151D-03 0.418D-02 0.144D-01
 Coeff-Com: -0.385D+00 0.137D+01
 Coeff:      0.251D-04-0.366D-04-0.297D-04-0.151D-03 0.418D-02 0.144D-01
 Coeff:     -0.385D+00 0.137D+01
 Gap=     0.137 Goal=   None    Shift=    0.000
 Gap=     0.133 Goal=   None    Shift=    0.000
 RMSDP=6.22D-07 MaxDP=5.92D-06 DE=-6.21D-10 OVMax= 1.61D-05

 Cycle   9  Pass 1  IDiag  1:
 E= -23.1886864690754     Delta-E=       -0.000000000068 Rises=F Damp=F
 DIIS: error= 6.43D-08 at cycle   9 NSaved=   9.
 NSaved= 9 IEnMin= 9 EnMin= -23.1886864690754     IErMin= 9 ErrMin= 6.43D-08
 ErrMax= 6.43D-08  0.00D+00 EMaxC= 1.00D-01 BMatC= 2.90D-13 BMatP= 4.84D-11
 IDIUse=1 WtCom= 1.00D+00 WtEn= 0.00D+00
 Coeff-Com: -0.165D-04 0.265D-04-0.252D-05-0.146D-03 0.211D-04 0.820D-02
 Coeff-Com: -0.373D-01-0.186D-01 0.105D+01
 Coeff:     -0.165D-04 0.265D-04-0.252D-05-0.146D-03 0.211D-04 0.820D-02
 Coeff:     -0.373D-01-0.186D-01 0.105D+01
 Gap=     0.137 Goal=   None    Shift=    0.000
 Gap=     0.133 Goal=   None    Shift=    0.000
 RMSDP=6.18D-08 MaxDP=6.67D-07 DE=-6.77D-11 OVMax= 1.57D-06

 Cycle  10  Pass 1  IDiag  1:
 E= -23.1886864690760     Delta-E=       -0.000000000001 Rises=F Damp=F
 DIIS: error= 5.16D-08 at cycle  10 NSaved=  10.
 NSaved=10 IEnMin=10 EnMin= -23.1886864690760     IErMin=10 ErrMin= 5.16D-08
 ErrMax= 5.16D-08  0.00D+00 EMaxC= 1.00D-01 BMatC= 5.73D-14 BMatP= 2.90D-13
 IDIUse=1 WtCom= 1.00D+00 WtEn= 0.00D+00
 Coeff-Com: -0.295D-05 0.391D-05 0.302D-05 0.222D-04-0.133D-03-0.205D-02
 Coeff-Com:  0.211D-01-0.441D-01-0.247D+00 0.127D+01
 Coeff:     -0.295D-05 0.391D-05 0.302D-05 0.222D-04-0.133D-03-0.205D-02
 Coeff:      0.211D-01-0.441D-01-0.247D+00 0.127D+01
 Gap=     0.137 Goal=   None    Shift=    0.000
 Gap=     0.133 Goal=   None    Shift=    0.000
 RMSDP=1.69D-08 MaxDP=1.45D-07 DE=-6.04D-13 OVMax= 2.61D-07

 Cycle  11  Pass 1  IDiag  1:
 E= -23.1886864690761     Delta-E=        0.000000000000 Rises=F Damp=F
 DIIS: error= 1.67D-08 at cycle  11 NSaved=  11.
 NSaved=11 IEnMin=11 EnMin= -23.1886864690761     IErMin=11 ErrMin= 1.67D-08
 ErrMax= 1.67D-08  0.00D+00 EMaxC= 1.00D-01 BMatC= 4.44D-15 BMatP= 5.73D-14
 IDIUse=1 WtCom= 1.00D+00 WtEn= 0.00D+00
 Coeff-Com: -0.344D-06 0.565D-06-0.168D-05-0.671D-05 0.600D-04 0.370D-03
 Coeff-Com: -0.624D-02 0.173D-01 0.321D-01-0.377D+00 0.133D+01
 Coeff:     -0.344D-06 0.565D-06-0.168D-05-0.671D-05 0.600D-04 0.370D-03
 Coeff:     -0.624D-02 0.173D-01 0.321D-01-0.377D+00 0.133D+01
 Gap=     0.137 Goal=   None    Shift=    0.000
 Gap=     0.133 Goal=   None    Shift=    0.000
 RMSDP=4.19D-09 MaxDP=5.72D-08 DE=-6.39D-14 OVMax= 7.95D-08

 SCF Done:  E(UB3LYP) =  -23.1886864691     A.U. after   11 cycles
            NFock= 11  Conv=0.42D-08     -V/T= 2.0052
 <Sx>= 0.0000 <Sy>= 0.0000 <Sz>= 0.5000 <S**2>= 0.7505 S= 0.5003
 <L.S>= 0.000000000000E+00
 KE= 2.306869153173D+01 PE=-6.215904996517D+01 EE= 1.128366403415D+01
 Annihilation of the first spin contaminant:
 S**2 before annihilation     0.7505,   after     0.7500
 Leave Link  502 at Sat Mar 28 20:12:44 2026, MaxMem=    33554432 cpu:         0.0
 (Enter C:\G09W\l601.exe)
 Copying SCF densities to generalized density rwf, IOpCl= 1 IROHF=0.

 **********************************************************************

            Population analysis using the SCF density.

 **********************************************************************

 Orbital symmetries:
 Alpha Orbitals:
       Occupied  (A') (A') (A') (A') (A')
       Virtual   (A') (A") (A') (A") (A') (A') (A') (A") (A') (A')
                 (A') (A") (A') (A') (A') (A') (A')
 Beta  Orbitals:
       Occupied  (A') (A') (A') (A')
       Virtual   (A') (A') (A") (A') (A") (A') (A') (A') (A") (A')
                 (A') (A') (A") (A') (A') (A') (A') (A')
 The electronic state is 2-A'.
 Alpha  occ. eigenvalues --   -4.03412  -1.97608  -0.36980  -0.20258  -0.19681
 Alpha virt. eigenvalues --   -0.05955  -0.05278  -0.04022  -0.00473  -0.00011
 Alpha virt. eigenvalues --    0.06732   0.11076   0.12142   0.12190   0.15514
 Alpha virt. eigenvalues --    0.25190   0.28685   0.29704   0.30855   0.44738
 Alpha virt. eigenvalues --    1.16978   1.19345
  Beta  occ. eigenvalues --   -4.02595  -1.97608  -0.35728  -0.19679
  Beta virt. eigenvalues --   -0.06403  -0.04867  -0.03118  -0.03071  -0.00456
  Beta virt. eigenvalues --    0.00233   0.06740   0.11173   0.12139   0.12375
  Beta virt. eigenvalues --    0.16716   0.25174   0.29712   0.30986   0.35540
  Beta virt. eigenvalues --    0.46791   1.17009   1.20920
          Condensed to atoms (all electrons):
               1          2          3          4
     1  Li   2.462789   0.379040   0.002248   0.000387
     2  H    0.379040   0.780085  -0.000006   0.000000
     3  Be   0.002248  -0.000006   3.502391   0.405460
     4  H    0.000387   0.000000   0.405460   0.680477
          Atomic-Atomic Spin Densities.
               1          2          3          4
     1  Li   0.000122   0.000014   0.001591  -0.000267
     2  H    0.000014   0.000122   0.000000   0.000000
     3  Be   0.001591   0.000000   0.935642  -0.012134
     4  H   -0.000267   0.000000  -0.012134   0.085707
 Mulliken charges and spin densities:
               1          2
     1  Li   0.155536   0.001459
     2  H   -0.159119   0.000136
     3  Be   0.089907   0.925099
     4  H   -0.086324   0.073306
 Sum of Mulliken charges =   0.00000   1.00000
 Mulliken charges and spin densities with hydrogens summed into heavy atoms:
               1          2
     1  Li  -0.003583   0.001596
     3  Be   0.003583   0.998404
 Electronic spatial extent (au):  <R**2>=            322.6602
 Charge=              0.0000 electrons
 Dipole moment (field-independent basis, Debye):
    X=              5.0010    Y=             -2.2017    Z=              0.0000  Tot=              5.4642
 Quadrupole moment (field-independent basis, Debye-Ang):
   XX=            -17.1845   YY=            -25.7899   ZZ=            -12.3640
   XY=             18.4483   XZ=              0.0000   YZ=              0.0000
 Traceless Quadrupole moment (field-independent basis, Debye-Ang):
   XX=              1.2616   YY=             -7.3437   ZZ=              6.0821
   XY=             18.4483   XZ=              0.0000   YZ=              0.0000
 Octapole moment (field-independent basis, Debye-Ang**2):
  XXX=              6.4861  YYY=            -73.9728  ZZZ=              0.0000  XYY=             52.1662
  XXY=              0.6425  XXZ=              0.0000  XZZ=              2.3669  YZZ=             -2.9115
  YYZ=              0.0000  XYZ=              0.0000
 Hexadecapole moment (field-independent basis, Debye-Ang**3):
 XXXX=            -66.0768 YYYY=          -1038.2277 ZZZZ=            -29.4411 XXXY=             68.0435
 XXXZ=              0.0000 YYYX=            277.0607 YYYZ=              0.0000 ZZZX=              0.0000
 ZZZY=              0.0000 XXYY=           -178.6216 XXZZ=            -15.5460 YYZZ=           -127.1706
 XXYZ=              0.0000 YYXZ=              0.0000 ZZXY=             19.1541
 N-N= 4.618007930221D+00 E-N=-6.215904994306D+01  KE= 2.306869153173D+01
 Symmetry A'   KE= 2.306869153173D+01
 Symmetry A"   KE= 0.000000000000D+00
                          Isotropic Fermi Contact Couplings
        Atom                 a.u.       MegaHertz       Gauss      10(-4) cm-1
     1  Li(7)             -0.00004      -0.07527      -0.02686      -0.02511
     2  H(1)               0.00004       0.19524       0.06967       0.06512
     3  Be(9)              0.21774    -136.82676     -48.82319     -45.64049
     4  H(1)               0.03407     152.28692      54.33976      50.79745
 --------------------------------------------------------
       Center         ----  Spin Dipole Couplings  ----
                      3XX-RR        3YY-RR        3ZZ-RR
 --------------------------------------------------------
     1   Atom       -0.000620      0.001294     -0.000674
     2   Atom       -0.000324      0.000774     -0.000450
     3   Atom        0.096781     -0.036692     -0.060089
     4   Atom        0.020426     -0.007555     -0.012871
 --------------------------------------------------------
                        XY            XZ            YZ
 --------------------------------------------------------
     1   Atom       -0.000221      0.000000      0.000000
     2   Atom       -0.000369      0.000000      0.000000
     3   Atom       -0.060501      0.000000      0.000000
     4   Atom       -0.013292      0.000000      0.000000
 --------------------------------------------------------


 ---------------------------------------------------------------------------------
              Anisotropic Spin Dipole Couplings in Principal Axis System
 ---------------------------------------------------------------------------------

       Atom             a.u.   MegaHertz   Gauss  10(-4) cm-1        Axes

              Baa    -0.0007    -0.140    -0.050    -0.047  0.0000  0.0000  1.0000
     1 Li(7)  Bbb    -0.0006    -0.134    -0.048    -0.045  0.9936  0.1133  0.0000
              Bcc     0.0013     0.274     0.098     0.091 -0.1133  0.9936  0.0000
 
              Baa    -0.0005    -0.240    -0.086    -0.080  0.0000  0.0000  1.0000
     2 H(1)   Bbb    -0.0004    -0.233    -0.083    -0.078  0.9565  0.2916  0.0000
              Bcc     0.0009     0.473     0.169     0.158 -0.2916  0.9565  0.0000
 
              Baa    -0.0601     4.507     1.608     1.503  0.0000  0.0000  1.0000
     3 Be(9)  Bbb    -0.0600     4.503     1.607     1.502  0.3600  0.9330  0.0000
              Bcc     0.1201    -9.010    -3.215    -3.006  0.9330 -0.3600  0.0000
 
              Baa    -0.0129    -6.867    -2.450    -2.291  0.0000  0.0000  1.0000
     4 H(1)   Bbb    -0.0129    -6.863    -2.449    -2.289  0.3708  0.9287  0.0000
              Bcc     0.0257    13.730     4.899     4.580  0.9287 -0.3708  0.0000
 

 ---------------------------------------------------------------------------------

 No NMR shielding tensors so no spin-rotation constants.
 Leave Link  601 at Sat Mar 28 20:12:44 2026, MaxMem=    33554432 cpu:         0.0
 (Enter C:\G09W\l9999.exe)
 1|1|UNPC-INANI_LAP|SP|UB3LYP|3-21G|Be1H2Li1(2)|EMMAN|28-Mar-2026|0||#p
  b3lyp/3-21g||Title Card Required - Distancia +4.80A - Paso 24||0,2|Li
 ,0,4.64474019,1.33044279,0.|H,0,3.11474019,1.33044279,0.|Be,0,6.828496
 17,-4.03185022,0.|H,0,5.63849617,-4.03185022,0.||Version=IA32W-G09RevD
 .01|State=2-A'|HF=-23.1886865|S2=0.750526|S2-1=0.|S2A=0.75|RMSD=4.185e
 -009|Dipole=2.148933,-0.0601653,0.|Quadrupole=-9.5543391,5.032432,4.52
 1907,12.0484245,0.,0.|PG=CS [SG(Be1H2Li1)]||@


 MAN IS A SINGULAR CREATURE.  HE HAS A SET OF GIFTS
 WHICH MAKE HIM UNIQUE AMONG THE ANIMALS: SO THAT, 
 UNLIKE THEM, HE IS NOT A FIGURE IN THE LANDSCAPE --
 HE IS A SHAPER OF THE LANDSCAPE.

                       -- JACOB BRONOWSKI
 Job cpu time:       0 days  0 hours  0 minutes  1.0 seconds.
 File lengths (MBytes):  RWF=      5 Int=      0 D2E=      0 Chk=      1 Scr=      1
 Normal termination of Gaussian 09 at Sat Mar 28 20:12:44 2026.
