 Entering Link 1 = C:\G09W\l1.exe PID=     11980.
  
 Copyright (c) 1988,1990,1992,1993,1995,1998,2003,2009,2013,
            Gaussian, Inc.  All Rights Reserved.
  
 This is part of the Gaussian(R) 09 program.  It is based on
 the Gaussian(R) 03 system (copyright 2003, Gaussian, Inc.),
 the Gaussian(R) 98 system (copyright 1998, Gaussian, Inc.),
 the Gaussian(R) 94 system (copyright 1995, Gaussian, Inc.),
 the Gaussian 92(TM) system (copyright 1992, Gaussian, Inc.),
 the Gaussian 90(TM) system (copyright 1990, Gaussian, Inc.),
 the Gaussian 88(TM) system (copyright 1988, Gaussian, Inc.),
 the Gaussian 86(TM) system (copyright 1986, Carnegie Mellon
 University), and the Gaussian 82(TM) system (copyright 1983,
 Carnegie Mellon University). Gaussian is a federally registered
 trademark of Gaussian, Inc.
  
 This software contains proprietary and confidential information,
 including trade secrets, belonging to Gaussian, Inc.
  
 This software is provided under written license and may be
 used, copied, transmitted, or stored only in accord with that
 written license.
  
 The following legend is applicable only to US Government
 contracts under FAR:
  
                    RESTRICTED RIGHTS LEGEND
  
 Use, reproduction and disclosure by the US Government is
 subject to restrictions as set forth in subparagraphs (a)
 and (c) of the Commercial Computer Software - Restricted
 Rights clause in FAR 52.227-19.
  
 Gaussian, Inc.
 340 Quinnipiac St., Bldg. 40, Wallingford CT 06492
  
  
 ---------------------------------------------------------------
 Warning -- This program may not be used in any manner that
 competes with the business of Gaussian, Inc. or will provide
 assistance to any competitor of Gaussian, Inc.  The licensee
 of this program is prohibited from giving any competitor of
 Gaussian, Inc. access to this program.  By using this program,
 the user acknowledges that Gaussian, Inc. is engaged in the
 business of creating and licensing software in the field of
 computational chemistry and represents and warrants to the
 licensee that it is not a competitor of Gaussian, Inc. and that
 it will not use this program in any manner prohibited above.
 ---------------------------------------------------------------
  

 Cite this work as:
 Gaussian 09, Revision D.01,
 M. J. Frisch, G. W. Trucks, H. B. Schlegel, G. E. Scuseria, 
 M. A. Robb, J. R. Cheeseman, G. Scalmani, V. Barone, B. Mennucci, 
 G. A. Petersson, H. Nakatsuji, M. Caricato, X. Li, H. P. Hratchian, 
 A. F. Izmaylov, J. Bloino, G. Zheng, J. L. Sonnenberg, M. Hada, 
 M. Ehara, K. Toyota, R. Fukuda, J. Hasegawa, M. Ishida, T. Nakajima, 
 Y. Honda, O. Kitao, H. Nakai, T. Vreven, J. A. Montgomery, Jr., 
 J. E. Peralta, F. Ogliaro, M. Bearpark, J. J. Heyd, E. Brothers, 
 K. N. Kudin, V. N. Staroverov, T. Keith, R. Kobayashi, J. Normand, 
 K. Raghavachari, A. Rendell, J. C. Burant, S. S. Iyengar, J. Tomasi, 
 M. Cossi, N. Rega, J. M. Millam, M. Klene, J. E. Knox, J. B. Cross, 
 V. Bakken, C. Adamo, J. Jaramillo, R. Gomperts, R. E. Stratmann, 
 O. Yazyev, A. J. Austin, R. Cammi, C. Pomelli, J. W. Ochterski, 
 R. L. Martin, K. Morokuma, V. G. Zakrzewski, G. A. Voth, 
 P. Salvador, J. J. Dannenberg, S. Dapprich, A. D. Daniels, 
 O. Farkas, J. B. Foresman, J. V. Ortiz, J. Cioslowski, 
 and D. J. Fox, Gaussian, Inc., Wallingford CT, 2013.
 
 ******************************************
 Gaussian 09:  IA32W-G09RevD.01 24-Apr-2013
                28-Mar-2026 
 ******************************************
 %chk=C:\Users\emman\Escritorio\quimica-enlaces\molecula\bn.chk
 --------------
 #p b3lyp/3-21g
 --------------
 1/38=1/1;
 2/12=2,17=6,18=5,40=1/2;
 3/5=5,11=2,16=1,25=1,30=1,74=-5/1,2,3;
 4//1;
 5/5=2,38=5/2;
 6/7=2,8=2,9=2,10=2,28=1/1;
 99/5=1,9=1/99;
 Leave Link    1 at Sat Mar 28 20:12:14 2026, MaxMem=           0 cpu:         1.0
 (Enter C:\G09W\l101.exe)
 -----------------------------------------------
 Title Card Required - Distancia +0.80A - Paso 4
 -----------------------------------------------
 Symbolic Z-matrix:
 Charge =  0 Multiplicity = 2
 Li                    4.64474   1.33044   0. 
 H                     3.11474   1.33044   0. 
 Be                    5.22078  -0.36917   0. 
 H                     4.03078  -0.36917   0. 
 
 NAtoms=      4 NQM=        4 NQMF=       0 NMMI=      0 NMMIF=      0
                NMic=       0 NMicF=      0.
                    Isotopes and Nuclear Properties:
 (Nuclear quadrupole moments (NQMom) in fm**2, nuclear magnetic moments (NMagM)
  in nuclear magnetons)

  Atom         1           2           3           4
 IAtWgt=           7           1           9           1
 AtmWgt=   7.0160045   1.0078250   9.0121825   1.0078250
 NucSpn=           3           1           3           1
 AtZEff=   0.0000000   0.0000000   0.0000000   0.0000000
 NQMom=   -4.0100000   0.0000000   5.2880000   0.0000000
 NMagM=    3.2564240   2.7928460  -1.1779000   2.7928460
 AtZNuc=   3.0000000   1.0000000   4.0000000   1.0000000
 Leave Link  101 at Sat Mar 28 20:12:14 2026, MaxMem=    33554432 cpu:         0.0
 (Enter C:\G09W\l202.exe)
                          Input orientation:                          
 ---------------------------------------------------------------------
 Center     Atomic      Atomic             Coordinates (Angstroms)
 Number     Number       Type             X           Y           Z
 ---------------------------------------------------------------------
      1          3           0        4.644740    1.330443    0.000000
      2          1           0        3.114740    1.330443    0.000000
      3          4           0        5.220777   -0.369168    0.000000
      4          1           0        4.030777   -0.369168    0.000000
 ---------------------------------------------------------------------
                    Distance matrix (angstroms):
                    1          2          3          4
     1  Li   0.000000
     2  H    1.530000   0.000000
     3  Be   1.794574   2.706302   0.000000
     4  H    1.807105   1.930751   1.190000   0.000000
 Stoichiometry    BeH2Li(2)
 Framework group  CS[SG(BeH2Li)]
 Deg. of freedom     5
 Full point group                 CS      NOp   2
 Largest Abelian subgroup         CS      NOp   2
 Largest concise Abelian subgroup C1      NOp   1
                         Standard orientation:                         
 ---------------------------------------------------------------------
 Center     Atomic      Atomic             Coordinates (Angstroms)
 Number     Number       Type             X           Y           Z
 ---------------------------------------------------------------------
      1          3           0        0.286230    0.899976    0.000000
      2          1           0       -1.162808    1.391088    0.000000
      3          4           0        0.286230   -0.894598    0.000000
      4          1           0       -0.840799   -0.512622    0.000000
 ---------------------------------------------------------------------
 Rotational constants (GHZ):    179.1738243     33.0937533     27.9342442
 Leave Link  202 at Sat Mar 28 20:12:14 2026, MaxMem=    33554432 cpu:         0.0
 (Enter C:\G09W\l301.exe)
 Standard basis: 3-21G (6D, 7F)
 Ernie: Thresh=  0.10000D-02 Tol=  0.10000D-05 Strict=F.
 There are    18 symmetry adapted cartesian basis functions of A'  symmetry.
 There are     4 symmetry adapted cartesian basis functions of A"  symmetry.
 There are    18 symmetry adapted basis functions of A'  symmetry.
 There are     4 symmetry adapted basis functions of A"  symmetry.
    22 basis functions,    36 primitive gaussians,    22 cartesian basis functions
     5 alpha electrons        4 beta electrons
       nuclear repulsion energy         8.2895774494 Hartrees.
 IExCor=  402 DFT=T Ex+Corr=B3LYP ExCW=0 ScaHFX=  0.200000
 ScaDFX=  0.800000  0.720000  1.000000  0.810000 ScalE2=  1.000000  1.000000
 IRadAn=      0 IRanWt=     -1 IRanGd=            0 ICorTp=0 IEmpDi=  4
 NAtoms=    4 NActive=    4 NUniq=    4 SFac= 1.00D+00 NAtFMM=   60 NAOKFM=F Big=F
 Integral buffers will be    262144 words long.
 Raffenetti 2 integral format.
 Two-electron integral symmetry is turned on.
 Leave Link  301 at Sat Mar 28 20:12:14 2026, MaxMem=    33554432 cpu:         0.0
 (Enter C:\G09W\l302.exe)
 NPDir=0 NMtPBC=     1 NCelOv=     1 NCel=       1 NClECP=     1 NCelD=      1
         NCelK=      1 NCelE2=     1 NClLst=     1 CellRange=     0.0.
 One-electron integrals computed using PRISM.
 NBasis=    22 RedAO= T EigKep=  2.17D-02  NBF=    18     4
 NBsUse=    22 1.00D-06 EigRej= -1.00D+00 NBFU=    18     4
 Precomputing XC quadrature grid using
 IXCGrd= 4 IRadAn=           0 IRanWt=          -1 IRanGd=           0 AccXCQ= 0.00D+00.
 Generated NRdTot=       0 NPtTot=           0 NUsed=           0 NTot=          16
 NSgBfM=    22    22    22    22    22 MxSgAt=     4 MxSgA2=     4.
 Leave Link  302 at Sat Mar 28 20:12:14 2026, MaxMem=    33554432 cpu:         0.0
 (Enter C:\G09W\l303.exe)
 DipDrv:  MaxL=1.
 Leave Link  303 at Sat Mar 28 20:12:14 2026, MaxMem=    33554432 cpu:         0.0
 (Enter C:\G09W\l401.exe)
 ExpMin= 2.86D-02 ExpMax= 7.19D+01 ExpMxC= 7.19D+01 IAcc=3 IRadAn=         5 AccDes= 0.00D+00
 Harris functional with IExCor=  402 and IRadAn=       5 diagonalized for initial guess.
 HarFok:  IExCor=  402 AccDes= 0.00D+00 IRadAn=         5 IDoV= 1 UseB2=F ITyADJ=14
 ICtDFT=  3500011 ScaDFX=  1.000000  1.000000  1.000000  1.000000
 FoFCou: FMM=F IPFlag=           0 FMFlag=      100000 FMFlg1=           0
         NFxFlg=           0 DoJE=T BraDBF=F KetDBF=T FulRan=T
         wScrn=  0.000000 ICntrl=     500 IOpCl=  0 I1Cent=   200000004 NGrid=           0
         NMat0=    1 NMatS0=      1 NMatT0=    0 NMatD0=    1 NMtDS0=    0 NMtDT0=    0
 Petite list used in FoFCou.
 Harris En= -23.1736229231795    
 JPrj=0 DoOrth=F DoCkMO=F.
 Initial guess orbital symmetries:
 Alpha Orbitals:
       Occupied  (A') (A') (A') (A') (A')
       Virtual   (A") (A') (A') (A") (A') (A') (A") (A') (A') (A')
                 (A') (A") (A') (A') (A') (A') (A')
 Beta  Orbitals:
       Occupied  (A') (A') (A') (A')
       Virtual   (A') (A") (A') (A') (A") (A') (A') (A") (A') (A')
                 (A') (A') (A") (A') (A') (A') (A') (A')
 The electronic state of the initial guess is 2-A'.
 Initial guess <Sx>= 0.0000 <Sy>= 0.0000 <Sz>= 0.5000 <S**2>= 0.7500 S= 0.5000
 Leave Link  401 at Sat Mar 28 20:12:14 2026, MaxMem=    33554432 cpu:         0.0
 (Enter C:\G09W\l502.exe)
 UHF open shell SCF:
 Using DIIS extrapolation, IDIIS=  1040.
 Integral symmetry usage will be decided dynamically.
 Keep R1 and R2 ints in memory in symmetry-blocked form, NReq=914551.
 IVT=       20170 IEndB=       20170 NGot=    33554432 MDV=    33495625
 LenX=    33495625 LenY=    33494700
 Requested convergence on RMS density matrix=1.00D-08 within 128 cycles.
 Requested convergence on MAX density matrix=1.00D-06.
 Requested convergence on             energy=1.00D-06.
 No special actions if energy rises.
 FoFCou: FMM=F IPFlag=           0 FMFlag=           0 FMFlg1=           0
         NFxFlg=           0 DoJE=F BraDBF=F KetDBF=F FulRan=T
         wScrn=  0.000000 ICntrl=     600 IOpCl=  0 I1Cent=           0 NGrid=           0
         NMat0=    1 NMatS0=    253 NMatT0=    0 NMatD0=    1 NMtDS0=    0 NMtDT0=    0
 Petite list used in FoFCou.

 Cycle   1  Pass 1  IDiag  1:
 E= -23.0612020002155    
 DIIS: error= 3.04D-02 at cycle   1 NSaved=   1.
 NSaved= 1 IEnMin= 1 EnMin= -23.0612020002155     IErMin= 1 ErrMin= 3.04D-02
 ErrMax= 3.04D-02  0.00D+00 EMaxC= 1.00D-01 BMatC= 1.23D-01 BMatP= 1.23D-01
 IDIUse=3 WtCom= 6.96D-01 WtEn= 3.04D-01
 Coeff-Com:  0.100D+01
 Coeff-En:   0.100D+01
 Coeff:      0.100D+01
 Gap=    -0.206 Goal=   None    Shift=    0.000
 Gap=     0.028 Goal=   None    Shift=    0.000
 GapD=   -0.206 DampG=0.250 DampE=0.500 DampFc=0.2500 IDamp=-1.
 Damping current iteration by 2.50D-01
 RMSDP=3.77D-02 MaxDP=2.70D-01              OVMax= 9.25D-01

 Cycle   2  Pass 1  IDiag  1:
 E= -23.0692212418374     Delta-E=       -0.008019241622 Rises=F Damp=T
 DIIS: error= 1.37D-02 at cycle   2 NSaved=   2.
 NSaved= 2 IEnMin= 2 EnMin= -23.0692212418374     IErMin= 2 ErrMin= 1.37D-02
 ErrMax= 1.37D-02  0.00D+00 EMaxC= 1.00D-01 BMatC= 2.52D-02 BMatP= 1.23D-01
 IDIUse=3 WtCom= 8.63D-01 WtEn= 1.37D-01
 Coeff-Com: -0.437D+00 0.144D+01
 Coeff-En:   0.414D+00 0.586D+00
 Coeff:     -0.320D+00 0.132D+01
 Gap=    -0.105 Goal=   None    Shift=    0.000
 Gap=     0.034 Goal=   None    Shift=    0.000
 RMSDP=1.09D-02 MaxDP=7.56D-02 DE=-8.02D-03 OVMax= 8.98D-01

 Cycle   3  Pass 1  IDiag  1:
 E= -23.1034712801250     Delta-E=       -0.034250038288 Rises=F Damp=F
 DIIS: error= 1.63D-02 at cycle   3 NSaved=   3.
 NSaved= 3 IEnMin= 3 EnMin= -23.1034712801250     IErMin= 2 ErrMin= 1.37D-02
 ErrMax= 1.63D-02  0.00D+00 EMaxC= 1.00D-01 BMatC= 3.74D-02 BMatP= 2.52D-02
 IDIUse=2 WtCom= 0.00D+00 WtEn= 1.00D+00
 Coeff-En:   0.000D+00 0.730D-02 0.993D+00
 Coeff:      0.000D+00 0.730D-02 0.993D+00
 Gap=     0.132 Goal=   None    Shift=    0.000
 Gap=    -0.010 Goal=   None    Shift=    0.000
 RMSDP=3.35D-02 MaxDP=2.98D-01 DE=-3.43D-02 OVMax= 8.89D-01

 Cycle   4  Pass 1  IDiag  1:
 E= -22.6936168565329     Delta-E=        0.409854423592 Rises=F Damp=F
 DIIS: error= 8.99D-02 at cycle   4 NSaved=   4.
 NSaved= 4 IEnMin= 3 EnMin= -23.1034712801250     IErMin= 2 ErrMin= 1.37D-02
 ErrMax= 8.99D-02  0.00D+00 EMaxC= 1.00D-01 BMatC= 3.85D-01 BMatP= 2.52D-02
 IDIUse=2 WtCom= 0.00D+00 WtEn= 1.00D+00
 Coeff-En:   0.000D+00 0.000D+00 0.903D+00 0.970D-01
 Coeff:      0.000D+00 0.000D+00 0.903D+00 0.970D-01
 Gap=     0.016 Goal=   None    Shift=    0.000
 Gap=     0.032 Goal=   None    Shift=    0.000
 RMSDP=2.03D-02 MaxDP=1.47D-01 DE= 4.10D-01 OVMax= 5.88D-01

 Cycle   5  Pass 1  IDiag  1:
 E= -23.0973679039098     Delta-E=       -0.403751047377 Rises=F Damp=F
 DIIS: error= 3.55D-02 at cycle   5 NSaved=   5.
 NSaved= 5 IEnMin= 3 EnMin= -23.1034712801250     IErMin= 2 ErrMin= 1.37D-02
 ErrMax= 3.55D-02  0.00D+00 EMaxC= 1.00D-01 BMatC= 4.79D-02 BMatP= 2.52D-02
 IDIUse=2 WtCom= 0.00D+00 WtEn= 1.00D+00
 Coeff-En:   0.000D+00 0.000D+00 0.536D+00 0.000D+00 0.464D+00
 Coeff:      0.000D+00 0.000D+00 0.536D+00 0.000D+00 0.464D+00
 Gap=     0.110 Goal=   None    Shift=    0.000
 Gap=     0.052 Goal=   None    Shift=    0.000
 RMSDP=1.10D-02 MaxDP=1.14D-01 DE=-4.04D-01 OVMax= 3.35D-01

 Cycle   6  Pass 1  IDiag  1:
 E= -23.1362829573190     Delta-E=       -0.038915053409 Rises=F Damp=F
 DIIS: error= 4.01D-03 at cycle   6 NSaved=   6.
 NSaved= 6 IEnMin= 6 EnMin= -23.1362829573190     IErMin= 6 ErrMin= 4.01D-03
 ErrMax= 4.01D-03  0.00D+00 EMaxC= 1.00D-01 BMatC= 6.74D-04 BMatP= 2.52D-02
 IDIUse=3 WtCom= 9.60D-01 WtEn= 4.01D-02
 Coeff-Com: -0.171D+00 0.285D+00 0.998D-01-0.287D-01 0.921D-01 0.722D+00
 Coeff-En:   0.000D+00 0.000D+00 0.000D+00 0.000D+00 0.000D+00 0.100D+01
 Coeff:     -0.164D+00 0.274D+00 0.958D-01-0.275D-01 0.884D-01 0.734D+00
 Gap=     0.113 Goal=   None    Shift=    0.000
 Gap=     0.072 Goal=   None    Shift=    0.000
 RMSDP=9.91D-04 MaxDP=6.45D-03 DE=-3.89D-02 OVMax= 1.96D-02

 Cycle   7  Pass 1  IDiag  1:
 E= -23.1358349698083     Delta-E=        0.000447987511 Rises=F Damp=F
 DIIS: error= 5.29D-03 at cycle   7 NSaved=   7.
 NSaved= 7 IEnMin= 6 EnMin= -23.1362829573190     IErMin= 6 ErrMin= 4.01D-03
 ErrMax= 5.29D-03  0.00D+00 EMaxC= 1.00D-01 BMatC= 1.31D-03 BMatP= 6.74D-04
 IDIUse=3 WtCom= 9.60D-01 WtEn= 4.01D-02
 Rare condition: small coef for last iteration:  0.000D+00
 Coeff-Com: -0.109D+00 0.193D+00 0.318D-02-0.307D-01 0.131D+00-0.161D+00
 Coeff-Com:  0.974D+00
 Coeff-En:   0.000D+00 0.000D+00 0.000D+00 0.000D+00 0.000D+00 0.000D+00
 Coeff-En:   0.100D+01
 Coeff:     -0.109D+00 0.193D+00 0.318D-02-0.307D-01 0.131D+00-0.161D+00
 Coeff:      0.974D+00
 Gap=     0.111 Goal=   None    Shift=    0.000
 Gap=     0.070 Goal=   None    Shift=    0.000
 RMSDP=9.27D-04 MaxDP=9.70D-03 DE= 4.48D-04 OVMax= 2.79D-02

 Cycle   8  Pass 1  IDiag  1:
 E= -23.1366312183103     Delta-E=       -0.000796248502 Rises=F Damp=F
 DIIS: error= 3.52D-03 at cycle   8 NSaved=   8.
 NSaved= 8 IEnMin= 8 EnMin= -23.1366312183103     IErMin= 8 ErrMin= 3.52D-03
 ErrMax= 3.52D-03  0.00D+00 EMaxC= 1.00D-01 BMatC= 4.95D-04 BMatP= 6.74D-04
 IDIUse=3 WtCom= 9.65D-01 WtEn= 3.52D-02
 Coeff-Com: -0.343D-01 0.631D-01 0.376D-01-0.639D-02 0.242D-01-0.115D+00
 Coeff-Com: -0.135D+01 0.238D+01
 Coeff-En:   0.000D+00 0.000D+00 0.000D+00 0.000D+00 0.000D+00 0.000D+00
 Coeff-En:   0.000D+00 0.100D+01
 Coeff:     -0.331D-01 0.608D-01 0.363D-01-0.616D-02 0.233D-01-0.111D+00
 Coeff:     -0.130D+01 0.233D+01
 Gap=     0.110 Goal=   None    Shift=    0.000
 Gap=     0.067 Goal=   None    Shift=    0.000
 RMSDP=1.31D-03 MaxDP=1.52D-02 DE=-7.96D-04 OVMax= 4.25D-02

 Cycle   9  Pass 1  IDiag  1:
 E= -23.1371645190663     Delta-E=       -0.000533300756 Rises=F Damp=F
 DIIS: error= 1.04D-03 at cycle   9 NSaved=   9.
 NSaved= 9 IEnMin= 9 EnMin= -23.1371645190663     IErMin= 9 ErrMin= 1.04D-03
 ErrMax= 1.04D-03  0.00D+00 EMaxC= 1.00D-01 BMatC= 3.03D-05 BMatP= 4.95D-04
 IDIUse=3 WtCom= 9.90D-01 WtEn= 1.04D-02
 Coeff-Com: -0.480D-02 0.855D-02 0.332D-01 0.273D-02-0.271D-01 0.149D+00
 Coeff-Com: -0.751D-01-0.872D+00 0.178D+01
 Coeff-En:   0.000D+00 0.000D+00 0.000D+00 0.000D+00 0.000D+00 0.000D+00
 Coeff-En:   0.000D+00 0.000D+00 0.100D+01
 Coeff:     -0.475D-02 0.846D-02 0.329D-01 0.270D-02-0.268D-01 0.148D+00
 Coeff:     -0.743D-01-0.863D+00 0.178D+01
 Gap=     0.113 Goal=   None    Shift=    0.000
 Gap=     0.067 Goal=   None    Shift=    0.000
 RMSDP=6.94D-04 MaxDP=6.35D-03 DE=-5.33D-04 OVMax= 2.24D-02

 Cycle  10  Pass 1  IDiag  1:
 E= -23.1372305845581     Delta-E=       -0.000066065492 Rises=F Damp=F
 DIIS: error= 2.56D-04 at cycle  10 NSaved=  10.
 NSaved=10 IEnMin=10 EnMin= -23.1372305845581     IErMin=10 ErrMin= 2.56D-04
 ErrMax= 2.56D-04  0.00D+00 EMaxC= 1.00D-01 BMatC= 1.45D-06 BMatP= 3.03D-05
 IDIUse=3 WtCom= 9.97D-01 WtEn= 2.56D-03
 Coeff-Com:  0.551D-02-0.893D-02-0.144D-01-0.237D-03 0.604D-02 0.915D-03
 Coeff-Com:  0.343D+00-0.334D+00-0.622D+00 0.162D+01
 Coeff-En:   0.000D+00 0.000D+00 0.000D+00 0.000D+00 0.000D+00 0.000D+00
 Coeff-En:   0.000D+00 0.000D+00 0.000D+00 0.100D+01
 Coeff:      0.550D-02-0.891D-02-0.144D-01-0.236D-03 0.602D-02 0.913D-03
 Coeff:      0.342D+00-0.333D+00-0.621D+00 0.162D+01
 Gap=     0.114 Goal=   None    Shift=    0.000
 Gap=     0.067 Goal=   None    Shift=    0.000
 RMSDP=3.68D-04 MaxDP=3.74D-03 DE=-6.61D-05 OVMax= 1.25D-02

 Cycle  11  Pass 1  IDiag  1:
 E= -23.1372334895051     Delta-E=       -0.000002904947 Rises=F Damp=F
 DIIS: error= 2.79D-04 at cycle  11 NSaved=  11.
 NSaved=11 IEnMin=11 EnMin= -23.1372334895051     IErMin=10 ErrMin= 2.56D-04
 ErrMax= 2.79D-04  0.00D+00 EMaxC= 1.00D-01 BMatC= 4.00D-06 BMatP= 1.45D-06
 IDIUse=3 WtCom= 9.97D-01 WtEn= 2.56D-03
 Coeff-Com:  0.308D-02-0.527D-02-0.174D-02 0.105D-02-0.506D-02 0.247D-02
 Coeff-Com: -0.653D-01 0.208D+00-0.187D+00-0.254D-01 0.107D+01
 Coeff-En:   0.000D+00 0.000D+00 0.000D+00 0.000D+00 0.000D+00 0.000D+00
 Coeff-En:   0.000D+00 0.000D+00 0.000D+00 0.000D+00 0.100D+01
 Coeff:      0.307D-02-0.526D-02-0.174D-02 0.105D-02-0.505D-02 0.246D-02
 Coeff:     -0.652D-01 0.208D+00-0.186D+00-0.253D-01 0.107D+01
 Gap=     0.115 Goal=   None    Shift=    0.000
 Gap=     0.067 Goal=   None    Shift=    0.000
 RMSDP=8.97D-05 MaxDP=8.71D-04 DE=-2.90D-06 OVMax= 2.53D-03

 Cycle  12  Pass 1  IDiag  1:
 E= -23.1372369345656     Delta-E=       -0.000003445060 Rises=F Damp=F
 DIIS: error= 7.30D-05 at cycle  12 NSaved=  12.
 NSaved=12 IEnMin=12 EnMin= -23.1372369345656     IErMin=12 ErrMin= 7.30D-05
 ErrMax= 7.30D-05  0.00D+00 EMaxC= 1.00D-01 BMatC= 3.14D-07 BMatP= 1.45D-06
 IDIUse=1 WtCom= 1.00D+00 WtEn= 0.00D+00
 Coeff-Com: -0.579D-03 0.884D-03 0.119D-02-0.777D-04 0.195D-03-0.162D-02
 Coeff-Com: -0.498D-03-0.284D-01 0.990D-01-0.955D-01-0.491D+00 0.152D+01
 Coeff:     -0.579D-03 0.884D-03 0.119D-02-0.777D-04 0.195D-03-0.162D-02
 Coeff:     -0.498D-03-0.284D-01 0.990D-01-0.955D-01-0.491D+00 0.152D+01
 Gap=     0.115 Goal=   None    Shift=    0.000
 Gap=     0.067 Goal=   None    Shift=    0.000
 RMSDP=4.99D-05 MaxDP=4.45D-04 DE=-3.45D-06 OVMax= 1.65D-03

 Cycle  13  Pass 1  IDiag  1:
 E= -23.1372372584750     Delta-E=       -0.000000323909 Rises=F Damp=F
 DIIS: error= 2.28D-05 at cycle  13 NSaved=  13.
 NSaved=13 IEnMin=13 EnMin= -23.1372372584750     IErMin=13 ErrMin= 2.28D-05
 ErrMax= 2.28D-05  0.00D+00 EMaxC= 1.00D-01 BMatC= 1.43D-08 BMatP= 3.14D-07
 IDIUse=1 WtCom= 1.00D+00 WtEn= 0.00D+00
 Coeff-Com: -0.297D-03 0.575D-03 0.956D-04-0.778D-04 0.376D-03 0.645D-04
 Coeff-Com:  0.143D-02-0.364D-02-0.149D-01 0.946D-02 0.116D+00-0.441D+00
 Coeff-Com:  0.133D+01
 Coeff:     -0.297D-03 0.575D-03 0.956D-04-0.778D-04 0.376D-03 0.645D-04
 Coeff:      0.143D-02-0.364D-02-0.149D-01 0.946D-02 0.116D+00-0.441D+00
 Coeff:      0.133D+01
 Gap=     0.115 Goal=   None    Shift=    0.000
 Gap=     0.067 Goal=   None    Shift=    0.000
 RMSDP=8.26D-06 MaxDP=9.78D-05 DE=-3.24D-07 OVMax= 2.38D-04

 Cycle  14  Pass 1  IDiag  1:
 E= -23.1372372729799     Delta-E=       -0.000000014505 Rises=F Damp=F
 DIIS: error= 1.34D-05 at cycle  14 NSaved=  14.
 NSaved=14 IEnMin=14 EnMin= -23.1372372729799     IErMin=14 ErrMin= 1.34D-05
 ErrMax= 1.34D-05  0.00D+00 EMaxC= 1.00D-01 BMatC= 6.50D-09 BMatP= 1.43D-08
 IDIUse=1 WtCom= 1.00D+00 WtEn= 0.00D+00
 Coeff-Com: -0.910D-04 0.122D-03 0.155D-03-0.127D-04 0.487D-05 0.284D-04
 Coeff-Com: -0.553D-02 0.685D-02 0.104D-01-0.179D-01-0.273D-01 0.179D+00
 Coeff-Com: -0.948D+00 0.180D+01
 Coeff:     -0.910D-04 0.122D-03 0.155D-03-0.127D-04 0.487D-05 0.284D-04
 Coeff:     -0.553D-02 0.685D-02 0.104D-01-0.179D-01-0.273D-01 0.179D+00
 Coeff:     -0.948D+00 0.180D+01
 Gap=     0.115 Goal=   None    Shift=    0.000
 Gap=     0.067 Goal=   None    Shift=    0.000
 RMSDP=4.97D-06 MaxDP=6.89D-05 DE=-1.45D-08 OVMax= 1.52D-04

 Cycle  15  Pass 1  IDiag  1:
 E= -23.1372372791982     Delta-E=       -0.000000006218 Rises=F Damp=F
 DIIS: error= 3.70D-06 at cycle  15 NSaved=  15.
 NSaved=15 IEnMin=15 EnMin= -23.1372372791982     IErMin=15 ErrMin= 3.70D-06
 ErrMax= 3.70D-06  0.00D+00 EMaxC= 1.00D-01 BMatC= 5.68D-10 BMatP= 6.50D-09
 IDIUse=1 WtCom= 1.00D+00 WtEn= 0.00D+00
 Coeff-Com: -0.227D-04 0.422D-04-0.126D-04-0.380D-05 0.209D-04-0.126D-03
 Coeff-Com:  0.135D-02-0.208D-02 0.179D-03 0.132D-02-0.273D-02 0.317D-02
 Coeff-Com:  0.116D+00-0.549D+00 0.143D+01
 Coeff:     -0.227D-04 0.422D-04-0.126D-04-0.380D-05 0.209D-04-0.126D-03
 Coeff:      0.135D-02-0.208D-02 0.179D-03 0.132D-02-0.273D-02 0.317D-02
 Coeff:      0.116D+00-0.549D+00 0.143D+01
 Gap=     0.115 Goal=   None    Shift=    0.000
 Gap=     0.067 Goal=   None    Shift=    0.000
 RMSDP=1.24D-06 MaxDP=1.64D-05 DE=-6.22D-09 OVMax= 3.48D-05

 Cycle  16  Pass 1  IDiag  1:
 E= -23.1372372796614     Delta-E=       -0.000000000463 Rises=F Damp=F
 DIIS: error= 1.18D-06 at cycle  16 NSaved=  16.
 NSaved=16 IEnMin=16 EnMin= -23.1372372796614     IErMin=16 ErrMin= 1.18D-06
 ErrMax= 1.18D-06  0.00D+00 EMaxC= 1.00D-01 BMatC= 6.44D-11 BMatP= 5.68D-10
 IDIUse=1 WtCom= 1.00D+00 WtEn= 0.00D+00
 Coeff-Com: -0.536D-05 0.665D-05 0.973D-05-0.870D-06 0.502D-05-0.112D-04
 Coeff-Com: -0.451D-03 0.737D-03-0.105D-05-0.498D-03 0.991D-03 0.506D-02
 Coeff-Com: -0.311D-01 0.103D+00-0.437D+00 0.136D+01
 Coeff:     -0.536D-05 0.665D-05 0.973D-05-0.870D-06 0.502D-05-0.112D-04
 Coeff:     -0.451D-03 0.737D-03-0.105D-05-0.498D-03 0.991D-03 0.506D-02
 Coeff:     -0.311D-01 0.103D+00-0.437D+00 0.136D+01
 Gap=     0.115 Goal=   None    Shift=    0.000
 Gap=     0.067 Goal=   None    Shift=    0.000
 RMSDP=3.90D-07 MaxDP=4.26D-06 DE=-4.63D-10 OVMax= 1.08D-05

 Cycle  17  Pass 1  IDiag  1:
 E= -23.1372372797145     Delta-E=       -0.000000000053 Rises=F Damp=F
 DIIS: error= 1.74D-07 at cycle  17 NSaved=  17.
 NSaved=17 IEnMin=17 EnMin= -23.1372372797145     IErMin=17 ErrMin= 1.74D-07
 ErrMax= 1.74D-07  0.00D+00 EMaxC= 1.00D-01 BMatC= 1.22D-12 BMatP= 6.44D-11
 IDIUse=1 WtCom= 1.00D+00 WtEn= 0.00D+00
 Coeff-Com:  0.322D-06-0.327D-06-0.594D-06 0.751D-07-0.405D-06 0.621D-06
 Coeff-Com:  0.391D-04-0.804D-04 0.454D-04-0.461D-04-0.417D-03 0.440D-03
 Coeff-Com: -0.403D-03-0.609D-02 0.592D-01-0.341D+00 0.129D+01
 Coeff:      0.322D-06-0.327D-06-0.594D-06 0.751D-07-0.405D-06 0.621D-06
 Coeff:      0.391D-04-0.804D-04 0.454D-04-0.461D-04-0.417D-03 0.440D-03
 Coeff:     -0.403D-03-0.609D-02 0.592D-01-0.341D+00 0.129D+01
 Gap=     0.115 Goal=   None    Shift=    0.000
 Gap=     0.067 Goal=   None    Shift=    0.000
 RMSDP=7.16D-08 MaxDP=8.46D-07 DE=-5.31D-11 OVMax= 2.42D-06

 Cycle  18  Pass 1  IDiag  1:
 E= -23.1372372797157     Delta-E=       -0.000000000001 Rises=F Damp=F
 DIIS: error= 5.19D-09 at cycle  18 NSaved=  18.
 NSaved=18 IEnMin=18 EnMin= -23.1372372797157     IErMin=18 ErrMin= 5.19D-09
 ErrMax= 5.19D-09  0.00D+00 EMaxC= 1.00D-01 BMatC= 1.06D-15 BMatP= 1.22D-12
 IDIUse=1 WtCom= 1.00D+00 WtEn= 0.00D+00
 Large coefficients: NSaved= 18 BigCof=    0.00 CofMax=   10.00 Det=-7.49D-16
 Inversion failed.  Reducing to 17 matrices.
 Large coefficients: NSaved= 17 BigCof=    0.00 CofMax=   10.00 Det=-7.77D-16
 Inversion failed.  Reducing to 16 matrices.
 Large coefficients: NSaved= 16 BigCof=    0.00 CofMax=   10.00 Det=-7.83D-16
 Inversion failed.  Reducing to 15 matrices.
 Coeff-Com: -0.337D-07 0.108D-07 0.244D-06-0.322D-06 0.116D-05-0.418D-06
 Coeff-Com:  0.102D-04 0.413D-04-0.161D-03 0.671D-03-0.770D-03-0.283D-02
 Coeff-Com:  0.394D-01-0.228D+00 0.119D+01
 Coeff:     -0.337D-07 0.108D-07 0.244D-06-0.322D-06 0.116D-05-0.418D-06
 Coeff:      0.102D-04 0.413D-04-0.161D-03 0.671D-03-0.770D-03-0.283D-02
 Coeff:      0.394D-01-0.228D+00 0.119D+01
 Gap=     0.115 Goal=   None    Shift=    0.000
 Gap=     0.067 Goal=   None    Shift=    0.000
 RMSDP=4.77D-09 MaxDP=3.95D-08 DE=-1.19D-12 OVMax= 1.65D-07

 SCF Done:  E(UB3LYP) =  -23.1372372797     A.U. after   18 cycles
            NFock= 18  Conv=0.48D-08     -V/T= 1.9925
 <Sx>= 0.0000 <Sy>= 0.0000 <Sz>= 0.5000 <S**2>= 0.7586 S= 0.5043
 <L.S>= 0.000000000000E+00
 KE= 2.331117795830D+01 PE=-6.944728696572D+01 EE= 1.470929427828D+01
 Annihilation of the first spin contaminant:
 S**2 before annihilation     0.7586,   after     0.7500
 Leave Link  502 at Sat Mar 28 20:12:16 2026, MaxMem=    33554432 cpu:         2.0
 (Enter C:\G09W\l601.exe)
 Copying SCF densities to generalized density rwf, IOpCl= 1 IROHF=0.

 **********************************************************************

            Population analysis using the SCF density.

 **********************************************************************

 Orbital symmetries:
 Alpha Orbitals:
       Occupied  (A') (A') (A') (A') (A')
       Virtual   (A") (A') (A') (A") (A') (A') (A') (A") (A') (A')
                 (A') (A") (A') (A') (A') (A') (A')
 Beta  Orbitals:
       Occupied  (A') (A') (A') (A')
       Virtual   (A') (A") (A') (A') (A") (A') (A') (A') (A") (A')
                 (A') (A') (A") (A') (A') (A') (A') (A')
 The electronic state is 2-A'.
 Alpha  occ. eigenvalues --   -4.04905  -1.98648  -0.41684  -0.23513  -0.20407
 Alpha virt. eigenvalues --   -0.08952  -0.07906  -0.01076   0.03271   0.04039
 Alpha virt. eigenvalues --    0.05689   0.10864   0.11414   0.16454   0.23712
 Alpha virt. eigenvalues --    0.26771   0.30615   0.33566   0.54188   0.62215
 Alpha virt. eigenvalues --    1.14461   1.20869
  Beta  occ. eigenvalues --   -4.04414  -1.98248  -0.39840  -0.19029
  Beta virt. eigenvalues --   -0.12309  -0.07783  -0.06788   0.00003   0.03562
  Beta virt. eigenvalues --    0.04368   0.05983   0.11313   0.11767   0.17628
  Beta virt. eigenvalues --    0.24578   0.27297   0.31028   0.35937   0.54921
  Beta virt. eigenvalues --    0.63622   1.16923   1.23040
          Condensed to atoms (all electrons):
               1          2          3          4
     1  Li   2.546805   0.351681   0.142929   0.063225
     2  H    0.351681   0.801569  -0.038332   0.001946
     3  Be   0.142929  -0.038332   3.322187   0.321501
     4  H    0.063225   0.001946   0.321501   0.643539
          Atomic-Atomic Spin Densities.
               1          2          3          4
     1  Li   0.065117   0.035765   0.075144  -0.040052
     2  H    0.035765   0.170864  -0.004157  -0.023173
     3  Be   0.075144  -0.004157   0.483160   0.043372
     4  H   -0.040052  -0.023173   0.043372   0.107060
 Mulliken charges and spin densities:
               1          2
     1  Li  -0.104640   0.135974
     2  H   -0.116864   0.179299
     3  Be   0.251715   0.597520
     4  H   -0.030211   0.087207
 Sum of Mulliken charges =   0.00000   1.00000
 Mulliken charges and spin densities with hydrogens summed into heavy atoms:
               1          2
     1  Li  -0.221504   0.315273
     3  Be   0.221504   0.684727
 Electronic spatial extent (au):  <R**2>=             69.4015
 Charge=              0.0000 electrons
 Dipole moment (field-independent basis, Debye):
    X=              2.7604    Y=             -2.0772    Z=              0.0000  Tot=              3.4547
 Quadrupole moment (field-independent basis, Debye-Ang):
   XX=            -17.4395   YY=            -14.1881   ZZ=            -11.4707
   XY=              5.9536   XZ=              0.0000   YZ=              0.0000
 Traceless Quadrupole moment (field-independent basis, Debye-Ang):
   XX=             -3.0734   YY=              0.1780   ZZ=              2.8954
   XY=              5.9536   XZ=              0.0000   YZ=              0.0000
 Octapole moment (field-independent basis, Debye-Ang**2):
  XXX=              0.2505  YYY=            -11.1566  ZZZ=              0.0000  XYY=              7.1765
  XXY=             -1.3726  XXZ=              0.0000  XZZ=              0.6886  YZZ=             -1.1388
  YYZ=              0.0000  XYZ=              0.0000
 Hexadecapole moment (field-independent basis, Debye-Ang**3):
 XXXX=            -68.1962 YYYY=           -112.1863 ZZZZ=            -23.5693 XXXY=             23.1288
 XXXZ=              0.0000 YYYX=             28.5373 YYYZ=              0.0000 ZZZX=              0.0000
 ZZZY=              0.0000 XXYY=            -33.2204 XXZZ=            -14.8618 YYZZ=            -20.8536
 XXYZ=              0.0000 YYXZ=              0.0000 ZZXY=              6.6462
 N-N= 8.289577449425D+00 E-N=-6.944728695842D+01  KE= 2.331117795830D+01
 Symmetry A'   KE= 2.331117795830D+01
 Symmetry A"   KE= 0.000000000000D+00
                          Isotropic Fermi Contact Couplings
        Atom                 a.u.       MegaHertz       Gauss      10(-4) cm-1
     1  Li(7)              0.08649     150.25213      53.61369      50.11872
     2  H(1)               0.04766     213.03115      76.01481      71.05954
     3  Be(9)              0.08881     -55.80700     -19.91332     -18.61521
     4  H(1)               0.04742     211.97380      75.63752      70.70685
 --------------------------------------------------------
       Center         ----  Spin Dipole Couplings  ----
                      3XX-RR        3YY-RR        3ZZ-RR
 --------------------------------------------------------
     1   Atom        0.003242      0.013656     -0.016898
     2   Atom        0.003306     -0.000638     -0.002668
     3   Atom        0.129408     -0.060902     -0.068506
     4   Atom        0.018263     -0.003714     -0.014549
 --------------------------------------------------------
                        XY            XZ            YZ
 --------------------------------------------------------
     1   Atom       -0.019321      0.000000      0.000000
     2   Atom       -0.004264      0.000000      0.000000
     3   Atom        0.008707      0.000000      0.000000
     4   Atom       -0.009210      0.000000      0.000000
 --------------------------------------------------------


 ---------------------------------------------------------------------------------
              Anisotropic Spin Dipole Couplings in Principal Axis System
 ---------------------------------------------------------------------------------

       Atom             a.u.   MegaHertz   Gauss  10(-4) cm-1        Axes

              Baa    -0.0169    -3.504    -1.250    -1.169  0.0000  0.0000  1.0000
     1 Li(7)  Bbb    -0.0116    -2.397    -0.855    -0.800  0.7938  0.6082  0.0000
              Bcc     0.0285     5.902     2.106     1.969 -0.6082  0.7938  0.0000
 
              Baa    -0.0034    -1.795    -0.640    -0.599  0.5387  0.8425  0.0000
     2 H(1)   Bbb    -0.0027    -1.424    -0.508    -0.475  0.0000  0.0000  1.0000
              Bcc     0.0060     3.219     1.148     1.074  0.8425 -0.5387  0.0000
 
              Baa    -0.0685     5.139     1.834     1.714  0.0000  0.0000  1.0000
     3 Be(9)  Bbb    -0.0613     4.598     1.641     1.534 -0.0456  0.9990  0.0000
              Bcc     0.1298    -9.737    -3.474    -3.248  0.9990  0.0456  0.0000
 
              Baa    -0.0145    -7.763    -2.770    -2.589  0.0000  0.0000  1.0000
     4 H(1)   Bbb    -0.0071    -3.768    -1.345    -1.257  0.3418  0.9398  0.0000
              Bcc     0.0216    11.531     4.115     3.846  0.9398 -0.3418  0.0000
 

 ---------------------------------------------------------------------------------

 No NMR shielding tensors so no spin-rotation constants.
 Leave Link  601 at Sat Mar 28 20:12:16 2026, MaxMem=    33554432 cpu:         0.0
 (Enter C:\G09W\l9999.exe)
 1|1|UNPC-INANI_LAP|SP|UB3LYP|3-21G|Be1H2Li1(2)|EMMAN|28-Mar-2026|0||#p
  b3lyp/3-21g||Title Card Required - Distancia +0.80A - Paso 4||0,2|Li,
 0,4.64474019,1.33044279,0.|H,0,3.11474019,1.33044279,0.|Be,0,5.2207772
 7,-0.36916815,0.|H,0,4.03077727,-0.36916815,0.||Version=IA32W-G09RevD.
 01|State=2-A'|HF=-23.1372373|S2=0.758637|S2-1=0.|S2A=0.750008|RMSD=4.7
 72e-009|Dipole=1.2908895,-0.4253625,0.|Quadrupole=-4.7271409,2.5744896
 ,2.1526513,2.7793363,0.,0.|PG=CS [SG(Be1H2Li1)]||@


 MAN IS A SINGULAR CREATURE.  HE HAS A SET OF GIFTS
 WHICH MAKE HIM UNIQUE AMONG THE ANIMALS: SO THAT, 
 UNLIKE THEM, HE IS NOT A FIGURE IN THE LANDSCAPE --
 HE IS A SHAPER OF THE LANDSCAPE.

                       -- JACOB BRONOWSKI
 Job cpu time:       0 days  0 hours  0 minutes  3.0 seconds.
 File lengths (MBytes):  RWF=      5 Int=      0 D2E=      0 Chk=      1 Scr=      1
 Normal termination of Gaussian 09 at Sat Mar 28 20:12:16 2026.
