 Entering Link 1 = C:\G09W\l1.exe PID=       252.
  
 Copyright (c) 1988,1990,1992,1993,1995,1998,2003,2009,2013,
            Gaussian, Inc.  All Rights Reserved.
  
 This is part of the Gaussian(R) 09 program.  It is based on
 the Gaussian(R) 03 system (copyright 2003, Gaussian, Inc.),
 the Gaussian(R) 98 system (copyright 1998, Gaussian, Inc.),
 the Gaussian(R) 94 system (copyright 1995, Gaussian, Inc.),
 the Gaussian 92(TM) system (copyright 1992, Gaussian, Inc.),
 the Gaussian 90(TM) system (copyright 1990, Gaussian, Inc.),
 the Gaussian 88(TM) system (copyright 1988, Gaussian, Inc.),
 the Gaussian 86(TM) system (copyright 1986, Carnegie Mellon
 University), and the Gaussian 82(TM) system (copyright 1983,
 Carnegie Mellon University). Gaussian is a federally registered
 trademark of Gaussian, Inc.
  
 This software contains proprietary and confidential information,
 including trade secrets, belonging to Gaussian, Inc.
  
 This software is provided under written license and may be
 used, copied, transmitted, or stored only in accord with that
 written license.
  
 The following legend is applicable only to US Government
 contracts under FAR:
  
                    RESTRICTED RIGHTS LEGEND
  
 Use, reproduction and disclosure by the US Government is
 subject to restrictions as set forth in subparagraphs (a)
 and (c) of the Commercial Computer Software - Restricted
 Rights clause in FAR 52.227-19.
  
 Gaussian, Inc.
 340 Quinnipiac St., Bldg. 40, Wallingford CT 06492
  
  
 ---------------------------------------------------------------
 Warning -- This program may not be used in any manner that
 competes with the business of Gaussian, Inc. or will provide
 assistance to any competitor of Gaussian, Inc.  The licensee
 of this program is prohibited from giving any competitor of
 Gaussian, Inc. access to this program.  By using this program,
 the user acknowledges that Gaussian, Inc. is engaged in the
 business of creating and licensing software in the field of
 computational chemistry and represents and warrants to the
 licensee that it is not a competitor of Gaussian, Inc. and that
 it will not use this program in any manner prohibited above.
 ---------------------------------------------------------------
  

 Cite this work as:
 Gaussian 09, Revision D.01,
 M. J. Frisch, G. W. Trucks, H. B. Schlegel, G. E. Scuseria, 
 M. A. Robb, J. R. Cheeseman, G. Scalmani, V. Barone, B. Mennucci, 
 G. A. Petersson, H. Nakatsuji, M. Caricato, X. Li, H. P. Hratchian, 
 A. F. Izmaylov, J. Bloino, G. Zheng, J. L. Sonnenberg, M. Hada, 
 M. Ehara, K. Toyota, R. Fukuda, J. Hasegawa, M. Ishida, T. Nakajima, 
 Y. Honda, O. Kitao, H. Nakai, T. Vreven, J. A. Montgomery, Jr., 
 J. E. Peralta, F. Ogliaro, M. Bearpark, J. J. Heyd, E. Brothers, 
 K. N. Kudin, V. N. Staroverov, T. Keith, R. Kobayashi, J. Normand, 
 K. Raghavachari, A. Rendell, J. C. Burant, S. S. Iyengar, J. Tomasi, 
 M. Cossi, N. Rega, J. M. Millam, M. Klene, J. E. Knox, J. B. Cross, 
 V. Bakken, C. Adamo, J. Jaramillo, R. Gomperts, R. E. Stratmann, 
 O. Yazyev, A. J. Austin, R. Cammi, C. Pomelli, J. W. Ochterski, 
 R. L. Martin, K. Morokuma, V. G. Zakrzewski, G. A. Voth, 
 P. Salvador, J. J. Dannenberg, S. Dapprich, A. D. Daniels, 
 O. Farkas, J. B. Foresman, J. V. Ortiz, J. Cioslowski, 
 and D. J. Fox, Gaussian, Inc., Wallingford CT, 2013.
 
 ******************************************
 Gaussian 09:  IA32W-G09RevD.01 24-Apr-2013
                28-Mar-2026 
 ******************************************
 %chk=C:\Users\emman\Escritorio\quimica-enlaces\molecula\bn.chk
 --------------
 #p b3lyp/3-21g
 --------------
 1/38=1/1;
 2/12=2,17=6,18=5,40=1/2;
 3/5=5,11=2,16=1,25=1,30=1,74=-5/1,2,3;
 4//1;
 5/5=2,38=5/2;
 6/7=2,8=2,9=2,10=2,28=1/1;
 99/5=1,9=1/99;
 Leave Link    1 at Sat Mar 28 20:12:16 2026, MaxMem=           0 cpu:         0.0
 (Enter C:\G09W\l101.exe)
 -----------------------------------------------
 Title Card Required - Distancia +1.00A - Paso 5
 -----------------------------------------------
 Symbolic Z-matrix:
 Charge =  0 Multiplicity = 2
 Li                    4.64474   1.33044   0. 
 H                     3.11474   1.33044   0. 
 Be                    5.30116  -0.5523    0. 
 H                     4.11116  -0.5523    0. 
 
 NAtoms=      4 NQM=        4 NQMF=       0 NMMI=      0 NMMIF=      0
                NMic=       0 NMicF=      0.
                    Isotopes and Nuclear Properties:
 (Nuclear quadrupole moments (NQMom) in fm**2, nuclear magnetic moments (NMagM)
  in nuclear magnetons)

  Atom         1           2           3           4
 IAtWgt=           7           1           9           1
 AtmWgt=   7.0160045   1.0078250   9.0121825   1.0078250
 NucSpn=           3           1           3           1
 AtZEff=   0.0000000   0.0000000   0.0000000   0.0000000
 NQMom=   -4.0100000   0.0000000   5.2880000   0.0000000
 NMagM=    3.2564240   2.7928460  -1.1779000   2.7928460
 AtZNuc=   3.0000000   1.0000000   4.0000000   1.0000000
 Leave Link  101 at Sat Mar 28 20:12:16 2026, MaxMem=    33554432 cpu:         0.0
 (Enter C:\G09W\l202.exe)
                          Input orientation:                          
 ---------------------------------------------------------------------
 Center     Atomic      Atomic             Coordinates (Angstroms)
 Number     Number       Type             X           Y           Z
 ---------------------------------------------------------------------
      1          3           0        4.644740    1.330443    0.000000
      2          1           0        3.114740    1.330443    0.000000
      3          4           0        5.301163   -0.552302    0.000000
      4          1           0        4.111163   -0.552302    0.000000
 ---------------------------------------------------------------------
                    Distance matrix (angstroms):
                    1          2          3          4
     1  Li   0.000000
     2  H    1.530000   0.000000
     3  Be   1.993896   2.885338   0.000000
     4  H    1.956894   2.130161   1.190000   0.000000
 Stoichiometry    BeH2Li(2)
 Framework group  CS[SG(BeH2Li)]
 Deg. of freedom     5
 Full point group                 CS      NOp   2
 Largest Abelian subgroup         CS      NOp   2
 Largest concise Abelian subgroup C1      NOp   1
                         Standard orientation:                         
 ---------------------------------------------------------------------
 Center     Atomic      Atomic             Coordinates (Angstroms)
 Number     Number       Type             X           Y           Z
 ---------------------------------------------------------------------
      1          3           0        0.285375    1.008223    0.000000
      2          1           0       -1.159335    1.511924    0.000000
      3          4           0        0.285375   -0.985672    0.000000
      4          1           0       -0.838288   -0.593905    0.000000
 ---------------------------------------------------------------------
 Rotational constants (GHZ):    178.5918017     27.0567156     23.4969241
 Leave Link  202 at Sat Mar 28 20:12:16 2026, MaxMem=    33554432 cpu:         0.0
 (Enter C:\G09W\l301.exe)
 Standard basis: 3-21G (6D, 7F)
 Ernie: Thresh=  0.10000D-02 Tol=  0.10000D-05 Strict=F.
 There are    18 symmetry adapted cartesian basis functions of A'  symmetry.
 There are     4 symmetry adapted cartesian basis functions of A"  symmetry.
 There are    18 symmetry adapted basis functions of A'  symmetry.
 There are     4 symmetry adapted basis functions of A"  symmetry.
    22 basis functions,    36 primitive gaussians,    22 cartesian basis functions
     5 alpha electrons        4 beta electrons
       nuclear repulsion energy         7.7944135807 Hartrees.
 IExCor=  402 DFT=T Ex+Corr=B3LYP ExCW=0 ScaHFX=  0.200000
 ScaDFX=  0.800000  0.720000  1.000000  0.810000 ScalE2=  1.000000  1.000000
 IRadAn=      0 IRanWt=     -1 IRanGd=            0 ICorTp=0 IEmpDi=  4
 NAtoms=    4 NActive=    4 NUniq=    4 SFac= 1.00D+00 NAtFMM=   60 NAOKFM=F Big=F
 Integral buffers will be    262144 words long.
 Raffenetti 2 integral format.
 Two-electron integral symmetry is turned on.
 Leave Link  301 at Sat Mar 28 20:12:16 2026, MaxMem=    33554432 cpu:         0.0
 (Enter C:\G09W\l302.exe)
 NPDir=0 NMtPBC=     1 NCelOv=     1 NCel=       1 NClECP=     1 NCelD=      1
         NCelK=      1 NCelE2=     1 NClLst=     1 CellRange=     0.0.
 One-electron integrals computed using PRISM.
 NBasis=    22 RedAO= T EigKep=  2.82D-02  NBF=    18     4
 NBsUse=    22 1.00D-06 EigRej= -1.00D+00 NBFU=    18     4
 Precomputing XC quadrature grid using
 IXCGrd= 4 IRadAn=           0 IRanWt=          -1 IRanGd=           0 AccXCQ= 0.00D+00.
 Generated NRdTot=       0 NPtTot=           0 NUsed=           0 NTot=          16
 NSgBfM=    22    22    22    22    22 MxSgAt=     4 MxSgA2=     4.
 Leave Link  302 at Sat Mar 28 20:12:16 2026, MaxMem=    33554432 cpu:         0.0
 (Enter C:\G09W\l303.exe)
 DipDrv:  MaxL=1.
 Leave Link  303 at Sat Mar 28 20:12:16 2026, MaxMem=    33554432 cpu:         0.0
 (Enter C:\G09W\l401.exe)
 ExpMin= 2.86D-02 ExpMax= 7.19D+01 ExpMxC= 7.19D+01 IAcc=3 IRadAn=         5 AccDes= 0.00D+00
 Harris functional with IExCor=  402 and IRadAn=       5 diagonalized for initial guess.
 HarFok:  IExCor=  402 AccDes= 0.00D+00 IRadAn=         5 IDoV= 1 UseB2=F ITyADJ=14
 ICtDFT=  3500011 ScaDFX=  1.000000  1.000000  1.000000  1.000000
 FoFCou: FMM=F IPFlag=           0 FMFlag=      100000 FMFlg1=           0
         NFxFlg=           0 DoJE=T BraDBF=F KetDBF=T FulRan=T
         wScrn=  0.000000 ICntrl=     500 IOpCl=  0 I1Cent=   200000004 NGrid=           0
         NMat0=    1 NMatS0=      1 NMatT0=    0 NMatD0=    1 NMtDS0=    0 NMtDT0=    0
 Petite list used in FoFCou.
 Harris En= -23.1971202147306    
 JPrj=0 DoOrth=F DoCkMO=F.
 Initial guess orbital symmetries:
 Alpha Orbitals:
       Occupied  (A') (A') (A') (A') (A')
       Virtual   (A") (A') (A') (A") (A') (A') (A") (A') (A') (A')
                 (A') (A") (A') (A') (A') (A') (A')
 Beta  Orbitals:
       Occupied  (A') (A') (A') (A')
       Virtual   (A') (A") (A') (A') (A") (A') (A') (A") (A') (A')
                 (A') (A') (A") (A') (A') (A') (A') (A')
 The electronic state of the initial guess is 2-A'.
 Initial guess <Sx>= 0.0000 <Sy>= 0.0000 <Sz>= 0.5000 <S**2>= 0.7500 S= 0.5000
 Leave Link  401 at Sat Mar 28 20:12:17 2026, MaxMem=    33554432 cpu:         1.0
 (Enter C:\G09W\l502.exe)
 UHF open shell SCF:
 Using DIIS extrapolation, IDIIS=  1040.
 Integral symmetry usage will be decided dynamically.
 Keep R1 and R2 ints in memory in symmetry-blocked form, NReq=914551.
 IVT=       20170 IEndB=       20170 NGot=    33554432 MDV=    33495625
 LenX=    33495625 LenY=    33494700
 Requested convergence on RMS density matrix=1.00D-08 within 128 cycles.
 Requested convergence on MAX density matrix=1.00D-06.
 Requested convergence on             energy=1.00D-06.
 No special actions if energy rises.
 FoFCou: FMM=F IPFlag=           0 FMFlag=           0 FMFlg1=           0
         NFxFlg=           0 DoJE=F BraDBF=F KetDBF=F FulRan=T
         wScrn=  0.000000 ICntrl=     600 IOpCl=  0 I1Cent=           0 NGrid=           0
         NMat0=    1 NMatS0=    253 NMatT0=    0 NMatD0=    1 NMtDS0=    0 NMtDT0=    0
 Petite list used in FoFCou.

 Cycle   1  Pass 1  IDiag  1:
 E= -23.0854149165550    
 DIIS: error= 3.41D-02 at cycle   1 NSaved=   1.
 NSaved= 1 IEnMin= 1 EnMin= -23.0854149165550     IErMin= 1 ErrMin= 3.41D-02
 ErrMax= 3.41D-02  0.00D+00 EMaxC= 1.00D-01 BMatC= 1.20D-01 BMatP= 1.20D-01
 IDIUse=3 WtCom= 6.59D-01 WtEn= 3.41D-01
 Coeff-Com:  0.100D+01
 Coeff-En:   0.100D+01
 Coeff:      0.100D+01
 Gap=    -0.204 Goal=   None    Shift=    0.000
 Gap=     0.024 Goal=   None    Shift=    0.000
 GapD=   -0.204 DampG=0.250 DampE=0.500 DampFc=0.2500 IDamp=-1.
 Damping current iteration by 2.50D-01
 RMSDP=3.75D-02 MaxDP=3.03D-01              OVMax= 9.35D-01

 Cycle   2  Pass 1  IDiag  1:
 E= -23.0892640252307     Delta-E=       -0.003849108676 Rises=F Damp=T
 DIIS: error= 1.45D-02 at cycle   2 NSaved=   2.
 NSaved= 2 IEnMin= 2 EnMin= -23.0892640252307     IErMin= 2 ErrMin= 1.45D-02
 ErrMax= 1.45D-02  0.00D+00 EMaxC= 1.00D-01 BMatC= 2.49D-02 BMatP= 1.20D-01
 IDIUse=3 WtCom= 8.55D-01 WtEn= 1.45D-01
 Coeff-Com: -0.420D+00 0.142D+01
 Coeff-En:   0.462D+00 0.538D+00
 Coeff:     -0.292D+00 0.129D+01
 Gap=    -0.119 Goal=   None    Shift=    0.000
 Gap=     0.019 Goal=   None    Shift=    0.000
 RMSDP=1.08D-02 MaxDP=7.27D-02 DE=-3.85D-03 OVMax= 9.16D-01

 Cycle   3  Pass 1  IDiag  1:
 E= -23.1237451147191     Delta-E=       -0.034481089488 Rises=F Damp=F
 DIIS: error= 1.91D-02 at cycle   3 NSaved=   3.
 NSaved= 3 IEnMin= 3 EnMin= -23.1237451147191     IErMin= 2 ErrMin= 1.45D-02
 ErrMax= 1.91D-02  0.00D+00 EMaxC= 1.00D-01 BMatC= 3.90D-02 BMatP= 2.49D-02
 IDIUse=2 WtCom= 0.00D+00 WtEn= 1.00D+00
 Coeff-En:   0.000D+00 0.764D-01 0.924D+00
 Coeff:      0.000D+00 0.764D-01 0.924D+00
 Gap=     0.130 Goal=   None    Shift=    0.000
 Gap=    -0.002 Goal=   None    Shift=    0.000
 RMSDP=3.29D-02 MaxDP=3.25D-01 DE=-3.45D-02 OVMax= 9.07D-01

 Cycle   4  Pass 1  IDiag  1:
 E= -22.7005584243070     Delta-E=        0.423186690412 Rises=F Damp=F
 DIIS: error= 1.01D-01 at cycle   4 NSaved=   4.
 NSaved= 4 IEnMin= 3 EnMin= -23.1237451147191     IErMin= 2 ErrMin= 1.45D-02
 ErrMax= 1.01D-01  0.00D+00 EMaxC= 1.00D-01 BMatC= 3.93D-01 BMatP= 2.49D-02
 IDIUse=2 WtCom= 0.00D+00 WtEn= 1.00D+00
 Coeff-En:   0.000D+00 0.000D+00 0.899D+00 0.101D+00
 Coeff:      0.000D+00 0.000D+00 0.899D+00 0.101D+00
 Gap=     0.018 Goal=   None    Shift=    0.000
 Gap=     0.017 Goal=   None    Shift=    0.000
 RMSDP=2.05D-02 MaxDP=1.33D-01 DE= 4.23D-01 OVMax= 5.66D-01

 Cycle   5  Pass 1  IDiag  1:
 E= -23.1279496817403     Delta-E=       -0.427391257433 Rises=F Damp=F
 DIIS: error= 3.18D-02 at cycle   5 NSaved=   5.
 NSaved= 5 IEnMin= 5 EnMin= -23.1279496817403     IErMin= 2 ErrMin= 1.45D-02
 ErrMax= 3.18D-02  0.00D+00 EMaxC= 1.00D-01 BMatC= 3.46D-02 BMatP= 2.49D-02
 IDIUse=2 WtCom= 0.00D+00 WtEn= 1.00D+00
 Coeff-En:   0.000D+00 0.000D+00 0.470D+00 0.000D+00 0.530D+00
 Coeff:      0.000D+00 0.000D+00 0.470D+00 0.000D+00 0.530D+00
 Gap=     0.110 Goal=   None    Shift=    0.000
 Gap=     0.057 Goal=   None    Shift=    0.000
 RMSDP=1.06D-02 MaxDP=1.20D-01 DE=-4.27D-01 OVMax= 3.23D-01

 Cycle   6  Pass 1  IDiag  1:
 E= -23.1566202599581     Delta-E=       -0.028670578218 Rises=F Damp=F
 DIIS: error= 4.94D-03 at cycle   6 NSaved=   6.
 NSaved= 6 IEnMin= 6 EnMin= -23.1566202599581     IErMin= 6 ErrMin= 4.94D-03
 ErrMax= 4.94D-03  0.00D+00 EMaxC= 1.00D-01 BMatC= 1.60D-03 BMatP= 2.49D-02
 IDIUse=3 WtCom= 9.51D-01 WtEn= 4.94D-02
 Coeff-Com: -0.162D+00 0.253D+00 0.544D-01-0.265D-01 0.128D+00 0.753D+00
 Coeff-En:   0.000D+00 0.000D+00 0.000D+00 0.000D+00 0.246D-02 0.998D+00
 Coeff:     -0.154D+00 0.240D+00 0.518D-01-0.252D-01 0.122D+00 0.765D+00
 Gap=     0.110 Goal=   None    Shift=    0.000
 Gap=     0.071 Goal=   None    Shift=    0.000
 RMSDP=9.16D-04 MaxDP=8.21D-03 DE=-2.87D-02 OVMax= 2.11D-02

 Cycle   7  Pass 1  IDiag  1:
 E= -23.1569999992678     Delta-E=       -0.000379739310 Rises=F Damp=F
 DIIS: error= 4.40D-03 at cycle   7 NSaved=   7.
 NSaved= 7 IEnMin= 7 EnMin= -23.1569999992678     IErMin= 7 ErrMin= 4.40D-03
 ErrMax= 4.40D-03  0.00D+00 EMaxC= 1.00D-01 BMatC= 1.29D-03 BMatP= 1.60D-03
 IDIUse=3 WtCom= 9.56D-01 WtEn= 4.40D-02
 Coeff-Com: -0.797D-01 0.138D+00-0.217D-01-0.223D-01 0.126D+00-0.265D+00
 Coeff-Com:  0.112D+01
 Coeff-En:   0.000D+00 0.000D+00 0.000D+00 0.000D+00 0.000D+00 0.000D+00
 Coeff-En:   0.100D+01
 Coeff:     -0.762D-01 0.132D+00-0.207D-01-0.213D-01 0.121D+00-0.253D+00
 Coeff:      0.112D+01
 Gap=     0.105 Goal=   None    Shift=    0.000
 Gap=     0.067 Goal=   None    Shift=    0.000
 RMSDP=1.23D-03 MaxDP=1.11D-02 DE=-3.80D-04 OVMax= 2.45D-02

 Cycle   8  Pass 1  IDiag  1:
 E= -23.1578961346069     Delta-E=       -0.000896135339 Rises=F Damp=F
 DIIS: error= 2.30D-03 at cycle   8 NSaved=   8.
 NSaved= 8 IEnMin= 8 EnMin= -23.1578961346069     IErMin= 8 ErrMin= 2.30D-03
 ErrMax= 2.30D-03  0.00D+00 EMaxC= 1.00D-01 BMatC= 2.90D-04 BMatP= 1.29D-03
 IDIUse=3 WtCom= 9.77D-01 WtEn= 2.30D-02
 Coeff-Com: -0.806D-02 0.211D-01 0.419D-02-0.328D-02 0.241D-01-0.192D+00
 Coeff-Com: -0.476D+00 0.163D+01
 Coeff-En:   0.000D+00 0.000D+00 0.000D+00 0.000D+00 0.000D+00 0.000D+00
 Coeff-En:   0.000D+00 0.100D+01
 Coeff:     -0.787D-02 0.206D-01 0.409D-02-0.321D-02 0.235D-01-0.187D+00
 Coeff:     -0.466D+00 0.162D+01
 Gap=     0.102 Goal=   None    Shift=    0.000
 Gap=     0.064 Goal=   None    Shift=    0.000
 RMSDP=1.08D-03 MaxDP=1.17D-02 DE=-8.96D-04 OVMax= 2.46D-02

 Cycle   9  Pass 1  IDiag  1:
 E= -23.1581764264081     Delta-E=       -0.000280291801 Rises=F Damp=F
 DIIS: error= 3.41D-04 at cycle   9 NSaved=   9.
 NSaved= 9 IEnMin= 9 EnMin= -23.1581764264081     IErMin= 9 ErrMin= 3.41D-04
 ErrMax= 3.41D-04  0.00D+00 EMaxC= 1.00D-01 BMatC= 3.67D-06 BMatP= 2.90D-04
 IDIUse=3 WtCom= 9.97D-01 WtEn= 3.41D-03
 Coeff-Com: -0.160D-02 0.266D-02 0.956D-02-0.306D-03-0.545D-02 0.761D-01
 Coeff-Com: -0.156D-01-0.416D+00 0.135D+01
 Coeff-En:   0.000D+00 0.000D+00 0.000D+00 0.000D+00 0.000D+00 0.000D+00
 Coeff-En:   0.000D+00 0.000D+00 0.100D+01
 Coeff:     -0.159D-02 0.265D-02 0.952D-02-0.305D-03-0.543D-02 0.758D-01
 Coeff:     -0.155D-01-0.415D+00 0.135D+01
 Gap=     0.103 Goal=   None    Shift=    0.000
 Gap=     0.063 Goal=   None    Shift=    0.000
 RMSDP=2.62D-04 MaxDP=3.04D-03 DE=-2.80D-04 OVMax= 9.07D-03

 Cycle  10  Pass 1  IDiag  1:
 E= -23.1581863490394     Delta-E=       -0.000009922631 Rises=F Damp=F
 DIIS: error= 1.11D-04 at cycle  10 NSaved=  10.
 NSaved=10 IEnMin=10 EnMin= -23.1581863490394     IErMin=10 ErrMin= 1.11D-04
 ErrMax= 1.11D-04  0.00D+00 EMaxC= 1.00D-01 BMatC= 7.49D-07 BMatP= 3.67D-06
 IDIUse=3 WtCom= 9.99D-01 WtEn= 1.11D-03
 Coeff-Com:  0.232D-02-0.339D-02-0.923D-02-0.711D-03 0.437D-02-0.128D-01
 Coeff-Com:  0.178D+00-0.613D-01-0.134D+01 0.225D+01
 Coeff-En:   0.000D+00 0.000D+00 0.000D+00 0.000D+00 0.000D+00 0.000D+00
 Coeff-En:   0.000D+00 0.000D+00 0.000D+00 0.100D+01
 Coeff:      0.232D-02-0.338D-02-0.922D-02-0.710D-03 0.436D-02-0.128D-01
 Coeff:      0.178D+00-0.613D-01-0.134D+01 0.224D+01
 Gap=     0.105 Goal=   None    Shift=    0.000
 Gap=     0.063 Goal=   None    Shift=    0.000
 RMSDP=2.90D-04 MaxDP=2.56D-03 DE=-9.92D-06 OVMax= 9.46D-03

 Cycle  11  Pass 1  IDiag  1:
 E= -23.1581898579957     Delta-E=       -0.000003508956 Rises=F Damp=F
 DIIS: error= 1.24D-04 at cycle  11 NSaved=  11.
 NSaved=11 IEnMin=11 EnMin= -23.1581898579957     IErMin=10 ErrMin= 1.11D-04
 ErrMax= 1.24D-04  0.00D+00 EMaxC= 1.00D-01 BMatC= 1.03D-06 BMatP= 7.49D-07
 IDIUse=3 WtCom= 9.99D-01 WtEn= 1.11D-03
 Coeff-Com:  0.125D-03-0.485D-04 0.179D-02 0.431D-03-0.438D-02 0.225D-02
 Coeff-Com: -0.323D-01 0.782D-01-0.224D-01-0.328D+00 0.130D+01
 Coeff-En:   0.000D+00 0.000D+00 0.000D+00 0.000D+00 0.000D+00 0.000D+00
 Coeff-En:   0.000D+00 0.000D+00 0.000D+00 0.000D+00 0.100D+01
 Coeff:      0.125D-03-0.485D-04 0.178D-02 0.430D-03-0.437D-02 0.225D-02
 Coeff:     -0.323D-01 0.781D-01-0.224D-01-0.328D+00 0.130D+01
 Gap=     0.105 Goal=   None    Shift=    0.000
 Gap=     0.063 Goal=   None    Shift=    0.000
 RMSDP=9.54D-05 MaxDP=8.57D-04 DE=-3.51D-06 OVMax= 2.39D-03

 Cycle  12  Pass 1  IDiag  1:
 E= -23.1581909100628     Delta-E=       -0.000001052067 Rises=F Damp=F
 DIIS: error= 2.46D-05 at cycle  12 NSaved=  12.
 NSaved=12 IEnMin=12 EnMin= -23.1581909100628     IErMin=12 ErrMin= 2.46D-05
 ErrMax= 2.46D-05  0.00D+00 EMaxC= 1.00D-01 BMatC= 3.25D-08 BMatP= 7.49D-07
 IDIUse=1 WtCom= 1.00D+00 WtEn= 0.00D+00
 Coeff-Com: -0.652D-03 0.970D-03 0.734D-03-0.994D-04 0.673D-03-0.143D-02
 Coeff-Com: -0.889D-02-0.389D-02 0.788D-01-0.615D-01-0.148D+00 0.114D+01
 Coeff:     -0.652D-03 0.970D-03 0.734D-03-0.994D-04 0.673D-03-0.143D-02
 Coeff:     -0.889D-02-0.389D-02 0.788D-01-0.615D-01-0.148D+00 0.114D+01
 Gap=     0.105 Goal=   None    Shift=    0.000
 Gap=     0.063 Goal=   None    Shift=    0.000
 RMSDP=9.74D-06 MaxDP=5.52D-05 DE=-1.05D-06 OVMax= 3.56D-04

 Cycle  13  Pass 1  IDiag  1:
 E= -23.1581909153156     Delta-E=       -0.000000005253 Rises=F Damp=F
 DIIS: error= 2.54D-05 at cycle  13 NSaved=  13.
 NSaved=13 IEnMin=13 EnMin= -23.1581909153156     IErMin=12 ErrMin= 2.46D-05
 ErrMax= 2.54D-05  0.00D+00 EMaxC= 1.00D-01 BMatC= 2.97D-08 BMatP= 3.25D-08
 IDIUse=1 WtCom= 1.00D+00 WtEn= 0.00D+00
 Coeff-Com: -0.253D-03 0.457D-03-0.428D-04-0.590D-04 0.398D-03-0.212D-03
 Coeff-Com:  0.281D-02-0.281D-02-0.349D-01 0.370D-01 0.445D-01-0.411D+00
 Coeff-Com:  0.136D+01
 Coeff:     -0.253D-03 0.457D-03-0.428D-04-0.590D-04 0.398D-03-0.212D-03
 Coeff:      0.281D-02-0.281D-02-0.349D-01 0.370D-01 0.445D-01-0.411D+00
 Coeff:      0.136D+01
 Gap=     0.105 Goal=   None    Shift=    0.000
 Gap=     0.063 Goal=   None    Shift=    0.000
 RMSDP=6.60D-06 MaxDP=7.57D-05 DE=-5.25D-09 OVMax= 1.68D-04

 Cycle  14  Pass 1  IDiag  1:
 E= -23.1581909379857     Delta-E=       -0.000000022670 Rises=F Damp=F
 DIIS: error= 1.09D-05 at cycle  14 NSaved=  14.
 NSaved=14 IEnMin=14 EnMin= -23.1581909379857     IErMin=14 ErrMin= 1.09D-05
 ErrMax= 1.09D-05  0.00D+00 EMaxC= 1.00D-01 BMatC= 5.05D-09 BMatP= 2.97D-08
 IDIUse=1 WtCom= 1.00D+00 WtEn= 0.00D+00
 Coeff-Com:  0.379D-07-0.560D-05 0.930D-04 0.416D-05-0.781D-04-0.916D-04
 Coeff-Com: -0.271D-02 0.384D-02 0.184D-01-0.386D-01 0.230D-01 0.149D+00
 Coeff-Com: -0.101D+01 0.186D+01
 Coeff:      0.379D-07-0.560D-05 0.930D-04 0.416D-05-0.781D-04-0.916D-04
 Coeff:     -0.271D-02 0.384D-02 0.184D-01-0.386D-01 0.230D-01 0.149D+00
 Coeff:     -0.101D+01 0.186D+01
 Gap=     0.105 Goal=   None    Shift=    0.000
 Gap=     0.063 Goal=   None    Shift=    0.000
 RMSDP=5.26D-06 MaxDP=6.75D-05 DE=-2.27D-08 OVMax= 1.67D-04

 Cycle  15  Pass 1  IDiag  1:
 E= -23.1581909430636     Delta-E=       -0.000000005078 Rises=F Damp=F
 DIIS: error= 3.86D-07 at cycle  15 NSaved=  15.
 NSaved=15 IEnMin=15 EnMin= -23.1581909430636     IErMin=15 ErrMin= 3.86D-07
 ErrMax= 3.86D-07  0.00D+00 EMaxC= 1.00D-01 BMatC= 8.56D-12 BMatP= 5.05D-09
 IDIUse=1 WtCom= 1.00D+00 WtEn= 0.00D+00
 Coeff-Com:  0.175D-05-0.170D-06-0.307D-04-0.251D-06 0.104D-04 0.296D-04
 Coeff-Com:  0.118D-02-0.181D-02-0.434D-02 0.127D-01-0.123D-01-0.465D-01
 Coeff-Com:  0.330D+00-0.796D+00 0.152D+01
 Coeff:      0.175D-05-0.170D-06-0.307D-04-0.251D-06 0.104D-04 0.296D-04
 Coeff:      0.118D-02-0.181D-02-0.434D-02 0.127D-01-0.123D-01-0.465D-01
 Coeff:      0.330D+00-0.796D+00 0.152D+01
 Gap=     0.105 Goal=   None    Shift=    0.000
 Gap=     0.063 Goal=   None    Shift=    0.000
 RMSDP=6.78D-07 MaxDP=4.85D-06 DE=-5.08D-09 OVMax= 2.06D-05

 Cycle  16  Pass 1  IDiag  1:
 E= -23.1581909431078     Delta-E=       -0.000000000044 Rises=F Damp=F
 DIIS: error= 5.71D-08 at cycle  16 NSaved=  16.
 NSaved=16 IEnMin=16 EnMin= -23.1581909431078     IErMin=16 ErrMin= 5.71D-08
 ErrMax= 5.71D-08  0.00D+00 EMaxC= 1.00D-01 BMatC= 2.42D-13 BMatP= 8.56D-12
 IDIUse=1 WtCom= 1.00D+00 WtEn= 0.00D+00
 Coeff-Com:  0.118D-05-0.234D-05 0.583D-05 0.632D-07-0.277D-06-0.809D-05
 Coeff-Com: -0.258D-03 0.425D-03 0.739D-03-0.261D-02 0.314D-02 0.102D-01
 Coeff-Com: -0.690D-01 0.182D+00-0.509D+00 0.138D+01
 Coeff:      0.118D-05-0.234D-05 0.583D-05 0.632D-07-0.277D-06-0.809D-05
 Coeff:     -0.258D-03 0.425D-03 0.739D-03-0.261D-02 0.314D-02 0.102D-01
 Coeff:     -0.690D-01 0.182D+00-0.509D+00 0.138D+01
 Gap=     0.105 Goal=   None    Shift=    0.000
 Gap=     0.063 Goal=   None    Shift=    0.000
 RMSDP=1.08D-07 MaxDP=9.02D-07 DE=-4.42D-11 OVMax= 3.02D-06

 Cycle  17  Pass 1  IDiag  1:
 E= -23.1581909431084     Delta-E=       -0.000000000001 Rises=F Damp=F
 DIIS: error= 7.52D-08 at cycle  17 NSaved=  17.
 NSaved=17 IEnMin=17 EnMin= -23.1581909431084     IErMin=16 ErrMin= 5.71D-08
 ErrMax= 7.52D-08  0.00D+00 EMaxC= 1.00D-01 BMatC= 3.84D-13 BMatP= 2.42D-13
 IDIUse=1 WtCom= 1.00D+00 WtEn= 0.00D+00
 Coeff-Com:  0.375D-06-0.519D-06-0.445D-06 0.806D-07-0.594D-06 0.223D-05
 Coeff-Com:  0.948D-05-0.541D-05-0.843D-04 0.165D-03-0.411D-03-0.691D-03
 Coeff-Com:  0.450D-02-0.838D-02 0.370D-01-0.238D+00 0.121D+01
 Coeff:      0.375D-06-0.519D-06-0.445D-06 0.806D-07-0.594D-06 0.223D-05
 Coeff:      0.948D-05-0.541D-05-0.843D-04 0.165D-03-0.411D-03-0.691D-03
 Coeff:      0.450D-02-0.838D-02 0.370D-01-0.238D+00 0.121D+01
 Gap=     0.105 Goal=   None    Shift=    0.000
 Gap=     0.063 Goal=   None    Shift=    0.000
 RMSDP=3.81D-08 MaxDP=3.47D-07 DE=-6.08D-13 OVMax= 6.89D-07

 Cycle  18  Pass 1  IDiag  1:
 E= -23.1581909431087     Delta-E=        0.000000000000 Rises=F Damp=F
 DIIS: error= 1.15D-08 at cycle  18 NSaved=  18.
 NSaved=18 IEnMin=18 EnMin= -23.1581909431087     IErMin=18 ErrMin= 1.15D-08
 ErrMax= 1.15D-08  0.00D+00 EMaxC= 1.00D-01 BMatC= 6.81D-15 BMatP= 2.42D-13
 IDIUse=1 WtCom= 1.00D+00 WtEn= 0.00D+00
 Large coefficients: NSaved= 18 BigCof=    0.00 CofMax=   10.00 Det=-3.73D-16
 Inversion failed.  Reducing to 17 matrices.
 Large coefficients: NSaved= 17 BigCof=    0.00 CofMax=   10.00 Det=-4.06D-16
 Inversion failed.  Reducing to 16 matrices.
 Large coefficients: NSaved= 16 BigCof=    0.00 CofMax=   10.00 Det=-4.16D-16
 Inversion failed.  Reducing to 15 matrices.
 Coeff-Com: -0.304D-07 0.509D-08 0.398D-06 0.127D-05-0.506D-05 0.137D-04
 Coeff-Com: -0.423D-05 0.139D-04-0.490D-04 0.166D-03-0.164D-03-0.687D-03
 Coeff-Com:  0.153D-01-0.183D+00 0.117D+01
 Coeff:     -0.304D-07 0.509D-08 0.398D-06 0.127D-05-0.506D-05 0.137D-04
 Coeff:     -0.423D-05 0.139D-04-0.490D-04 0.166D-03-0.164D-03-0.687D-03
 Coeff:      0.153D-01-0.183D+00 0.117D+01
 Gap=     0.105 Goal=   None    Shift=    0.000
 Gap=     0.063 Goal=   None    Shift=    0.000
 RMSDP=5.46D-09 MaxDP=6.22D-08 DE=-3.27D-13 OVMax= 1.74D-07

 SCF Done:  E(UB3LYP) =  -23.1581909431     A.U. after   18 cycles
            NFock= 18  Conv=0.55D-08     -V/T= 1.9970
 <Sx>= 0.0000 <Sy>= 0.0000 <Sz>= 0.5000 <S**2>= 0.7538 S= 0.5019
 <L.S>= 0.000000000000E+00
 KE= 2.322709232160D+01 PE=-6.846125270217D+01 EE= 1.428155585678D+01
 Annihilation of the first spin contaminant:
 S**2 before annihilation     0.7538,   after     0.7500
 Leave Link  502 at Sat Mar 28 20:12:18 2026, MaxMem=    33554432 cpu:         1.0
 (Enter C:\G09W\l601.exe)
 Copying SCF densities to generalized density rwf, IOpCl= 1 IROHF=0.

 **********************************************************************

            Population analysis using the SCF density.

 **********************************************************************

 Orbital symmetries:
 Alpha Orbitals:
       Occupied  (A') (A') (A') (A') (A')
       Virtual   (A') (A") (A') (A") (A') (A') (A') (A") (A') (A')
                 (A') (A") (A') (A') (A') (A') (A')
 Beta  Orbitals:
       Occupied  (A') (A') (A') (A')
       Virtual   (A') (A') (A") (A') (A") (A') (A') (A') (A") (A')
                 (A') (A') (A") (A') (A') (A') (A') (A')
 The electronic state is 2-A'.
 Alpha  occ. eigenvalues --   -4.05443  -1.97439  -0.41036  -0.23634  -0.19453
 Alpha virt. eigenvalues --   -0.08932  -0.08773  -0.01328   0.02848   0.03896
 Alpha virt. eigenvalues --    0.06249   0.10960   0.11619   0.15789   0.24362
 Alpha virt. eigenvalues --    0.25422   0.29925   0.32461   0.42176   0.61171
 Alpha virt. eigenvalues --    1.13911   1.23419
  Beta  occ. eigenvalues --   -4.04855  -1.97140  -0.39202  -0.18623
  Beta virt. eigenvalues --   -0.12311  -0.07506  -0.07412  -0.00334   0.03162
  Beta virt. eigenvalues --    0.04350   0.06458   0.11320   0.11847   0.16982
  Beta virt. eigenvalues --    0.24981   0.26188   0.30446   0.34956   0.42900
  Beta virt. eigenvalues --    0.62920   1.15541   1.25131
          Condensed to atoms (all electrons):
               1          2          3          4
     1  Li   2.521925   0.368877   0.083702   0.035837
     2  H    0.368877   0.786314  -0.023382  -0.000298
     3  Be   0.083702  -0.023382   3.425432   0.358023
     4  H    0.035837  -0.000298   0.358023   0.620810
          Atomic-Atomic Spin Densities.
               1          2          3          4
     1  Li   0.046572   0.016117   0.070404  -0.029112
     2  H    0.016117   0.084954   0.001012  -0.012113
     3  Be   0.070404   0.001012   0.616233   0.025560
     4  H   -0.029112  -0.012113   0.025560   0.108505
 Mulliken charges and spin densities:
               1          2
     1  Li  -0.010340   0.103981
     2  H   -0.131512   0.089970
     3  Be   0.156224   0.713209
     4  H   -0.014373   0.092841
 Sum of Mulliken charges =   0.00000   1.00000
 Mulliken charges and spin densities with hydrogens summed into heavy atoms:
               1          2
     1  Li  -0.141852   0.193951
     3  Be   0.141852   0.806049
 Electronic spatial extent (au):  <R**2>=             76.1737
 Charge=              0.0000 electrons
 Dipole moment (field-independent basis, Debye):
    X=              3.5667    Y=             -2.7270    Z=              0.0000  Tot=              4.4898
 Quadrupole moment (field-independent basis, Debye-Ang):
   XX=            -17.3050   YY=            -14.9069   ZZ=            -11.6874
   XY=              6.7233   XZ=              0.0000   YZ=              0.0000
 Traceless Quadrupole moment (field-independent basis, Debye-Ang):
   XX=             -2.6719   YY=             -0.2738   ZZ=              2.9457
   XY=              6.7233   XZ=              0.0000   YZ=              0.0000
 Octapole moment (field-independent basis, Debye-Ang**2):
  XXX=              2.6769  YYY=            -16.0131  ZZZ=              0.0000  XYY=              9.5316
  XXY=             -2.0009  XXZ=              0.0000  XZZ=              1.4192  YZZ=             -1.9393
  YYZ=              0.0000  XYZ=              0.0000
 Hexadecapole moment (field-independent basis, Debye-Ang**3):
 XXXX=            -67.7973 YYYY=           -134.9732 ZZZZ=            -25.0589 XXXY=             26.2929
 XXXZ=              0.0000 YYYX=             33.8285 YYYZ=              0.0000 ZZZX=              0.0000
 ZZZY=              0.0000 XXYY=            -37.5794 XXZZ=            -15.0536 YYZZ=            -24.3741
 XXYZ=              0.0000 YYXZ=              0.0000 ZZXY=              7.5037
 N-N= 7.794413580678D+00 E-N=-6.846125268981D+01  KE= 2.322709232160D+01
 Symmetry A'   KE= 2.322709232160D+01
 Symmetry A"   KE= 0.000000000000D+00
                          Isotropic Fermi Contact Couplings
        Atom                 a.u.       MegaHertz       Gauss      10(-4) cm-1
     1  Li(7)              0.06465     112.31545      40.07694      37.46440
     2  H(1)               0.02269     101.41298      36.18667      33.82773
     3  Be(9)              0.12150     -76.35135     -27.24406     -25.46807
     4  H(1)               0.04727     211.28133      75.39043      70.47587
 --------------------------------------------------------
       Center         ----  Spin Dipole Couplings  ----
                      3XX-RR        3YY-RR        3ZZ-RR
 --------------------------------------------------------
     1   Atom       -0.001823      0.014962     -0.013139
     2   Atom        0.001739      0.001574     -0.003313
     3   Atom        0.132652     -0.063143     -0.069510
     4   Atom        0.020322     -0.006495     -0.013827
 --------------------------------------------------------
                        XY            XZ            YZ
 --------------------------------------------------------
     1   Atom       -0.014562      0.000000      0.000000
     2   Atom       -0.005084      0.000000      0.000000
     3   Atom        0.004879      0.000000      0.000000
     4   Atom       -0.009338      0.000000      0.000000
 --------------------------------------------------------


 ---------------------------------------------------------------------------------
              Anisotropic Spin Dipole Couplings in Principal Axis System
 ---------------------------------------------------------------------------------

       Atom             a.u.   MegaHertz   Gauss  10(-4) cm-1        Axes

              Baa    -0.0131    -2.725    -0.972    -0.909  0.0000  0.0000  1.0000
     1 Li(7)  Bbb    -0.0102    -2.123    -0.758    -0.708  0.8658  0.5003  0.0000
              Bcc     0.0234     4.848     1.730     1.617 -0.5003  0.8658  0.0000
 
              Baa    -0.0034    -1.829    -0.653    -0.610  0.7014  0.7128  0.0000
     2 H(1)   Bbb    -0.0033    -1.768    -0.631    -0.590  0.0000  0.0000  1.0000
              Bcc     0.0067     3.597     1.283     1.200  0.7128 -0.7014  0.0000
 
              Baa    -0.0695     5.214     1.860     1.739  0.0000  0.0000  1.0000
     3 Be(9)  Bbb    -0.0633     4.745     1.693     1.583 -0.0249  0.9997  0.0000
              Bcc     0.1328    -9.959    -3.554    -3.322  0.9997  0.0249  0.0000
 
              Baa    -0.0138    -7.377    -2.632    -2.461  0.0000  0.0000  1.0000
     4 H(1)   Bbb    -0.0094    -5.030    -1.795    -1.678  0.2995  0.9541  0.0000
              Bcc     0.0233    12.407     4.427     4.138  0.9541 -0.2995  0.0000
 

 ---------------------------------------------------------------------------------

 No NMR shielding tensors so no spin-rotation constants.
 Leave Link  601 at Sat Mar 28 20:12:18 2026, MaxMem=    33554432 cpu:         0.0
 (Enter C:\G09W\l9999.exe)
 1|1|UNPC-INANI_LAP|SP|UB3LYP|3-21G|Be1H2Li1(2)|EMMAN|28-Mar-2026|0||#p
  b3lyp/3-21g||Title Card Required - Distancia +1.00A - Paso 5||0,2|Li,
 0,4.64474019,1.33044279,0.|H,0,3.11474019,1.33044279,0.|Be,0,5.3011632
 1,-0.55230226,0.|H,0,4.11116321,-0.55230226,0.||Version=IA32W-G09RevD.
 01|State=2-A'|HF=-23.1581909|S2=0.753798|S2-1=0.|S2A=0.750003|RMSD=5.4
 60e-009|Dipole=1.6782355,-0.5511006,0.|Quadrupole=-4.901052,2.7109783,
 2.1900737,3.3608323,0.,0.|PG=CS [SG(Be1H2Li1)]||@


 MAN IS A SINGULAR CREATURE.  HE HAS A SET OF GIFTS
 WHICH MAKE HIM UNIQUE AMONG THE ANIMALS: SO THAT, 
 UNLIKE THEM, HE IS NOT A FIGURE IN THE LANDSCAPE --
 HE IS A SHAPER OF THE LANDSCAPE.

                       -- JACOB BRONOWSKI
 Job cpu time:       0 days  0 hours  0 minutes  2.0 seconds.
 File lengths (MBytes):  RWF=      5 Int=      0 D2E=      0 Chk=      1 Scr=      1
 Normal termination of Gaussian 09 at Sat Mar 28 20:12:18 2026.
