 Entering Link 1 = C:\G09W\l1.exe PID=      6448.
  
 Copyright (c) 1988,1990,1992,1993,1995,1998,2003,2009,2013,
            Gaussian, Inc.  All Rights Reserved.
  
 This is part of the Gaussian(R) 09 program.  It is based on
 the Gaussian(R) 03 system (copyright 2003, Gaussian, Inc.),
 the Gaussian(R) 98 system (copyright 1998, Gaussian, Inc.),
 the Gaussian(R) 94 system (copyright 1995, Gaussian, Inc.),
 the Gaussian 92(TM) system (copyright 1992, Gaussian, Inc.),
 the Gaussian 90(TM) system (copyright 1990, Gaussian, Inc.),
 the Gaussian 88(TM) system (copyright 1988, Gaussian, Inc.),
 the Gaussian 86(TM) system (copyright 1986, Carnegie Mellon
 University), and the Gaussian 82(TM) system (copyright 1983,
 Carnegie Mellon University). Gaussian is a federally registered
 trademark of Gaussian, Inc.
  
 This software contains proprietary and confidential information,
 including trade secrets, belonging to Gaussian, Inc.
  
 This software is provided under written license and may be
 used, copied, transmitted, or stored only in accord with that
 written license.
  
 The following legend is applicable only to US Government
 contracts under FAR:
  
                    RESTRICTED RIGHTS LEGEND
  
 Use, reproduction and disclosure by the US Government is
 subject to restrictions as set forth in subparagraphs (a)
 and (c) of the Commercial Computer Software - Restricted
 Rights clause in FAR 52.227-19.
  
 Gaussian, Inc.
 340 Quinnipiac St., Bldg. 40, Wallingford CT 06492
  
  
 ---------------------------------------------------------------
 Warning -- This program may not be used in any manner that
 competes with the business of Gaussian, Inc. or will provide
 assistance to any competitor of Gaussian, Inc.  The licensee
 of this program is prohibited from giving any competitor of
 Gaussian, Inc. access to this program.  By using this program,
 the user acknowledges that Gaussian, Inc. is engaged in the
 business of creating and licensing software in the field of
 computational chemistry and represents and warrants to the
 licensee that it is not a competitor of Gaussian, Inc. and that
 it will not use this program in any manner prohibited above.
 ---------------------------------------------------------------
  

 Cite this work as:
 Gaussian 09, Revision D.01,
 M. J. Frisch, G. W. Trucks, H. B. Schlegel, G. E. Scuseria, 
 M. A. Robb, J. R. Cheeseman, G. Scalmani, V. Barone, B. Mennucci, 
 G. A. Petersson, H. Nakatsuji, M. Caricato, X. Li, H. P. Hratchian, 
 A. F. Izmaylov, J. Bloino, G. Zheng, J. L. Sonnenberg, M. Hada, 
 M. Ehara, K. Toyota, R. Fukuda, J. Hasegawa, M. Ishida, T. Nakajima, 
 Y. Honda, O. Kitao, H. Nakai, T. Vreven, J. A. Montgomery, Jr., 
 J. E. Peralta, F. Ogliaro, M. Bearpark, J. J. Heyd, E. Brothers, 
 K. N. Kudin, V. N. Staroverov, T. Keith, R. Kobayashi, J. Normand, 
 K. Raghavachari, A. Rendell, J. C. Burant, S. S. Iyengar, J. Tomasi, 
 M. Cossi, N. Rega, J. M. Millam, M. Klene, J. E. Knox, J. B. Cross, 
 V. Bakken, C. Adamo, J. Jaramillo, R. Gomperts, R. E. Stratmann, 
 O. Yazyev, A. J. Austin, R. Cammi, C. Pomelli, J. W. Ochterski, 
 R. L. Martin, K. Morokuma, V. G. Zakrzewski, G. A. Voth, 
 P. Salvador, J. J. Dannenberg, S. Dapprich, A. D. Daniels, 
 O. Farkas, J. B. Foresman, J. V. Ortiz, J. Cioslowski, 
 and D. J. Fox, Gaussian, Inc., Wallingford CT, 2013.
 
 ******************************************
 Gaussian 09:  IA32W-G09RevD.01 24-Apr-2013
                28-Mar-2026 
 ******************************************
 %chk=C:\Users\emman\Escritorio\quimica-enlaces\molecula\bn.chk
 --------------
 #p b3lyp/3-21g
 --------------
 1/38=1/1;
 2/12=2,17=6,18=5,40=1/2;
 3/5=5,11=2,16=1,25=1,30=1,74=-5/1,2,3;
 4//1;
 5/5=2,38=5/2;
 6/7=2,8=2,9=2,10=2,28=1/1;
 99/5=1,9=1/99;
 Leave Link    1 at Sat Mar 28 20:12:37 2026, MaxMem=           0 cpu:         0.0
 (Enter C:\G09W\l101.exe)
 ------------------------------------------------
 Title Card Required - Distancia +3.80A - Paso 19
 ------------------------------------------------
 Symbolic Z-matrix:
 Charge =  0 Multiplicity = 2
 Li                    4.64474   1.33044   0. 
 H                     3.11474   1.33044   0. 
 Be                    6.42657  -3.11618   0. 
 H                     5.23657  -3.11618   0. 
 
 NAtoms=      4 NQM=        4 NQMF=       0 NMMI=      0 NMMIF=      0
                NMic=       0 NMicF=      0.
                    Isotopes and Nuclear Properties:
 (Nuclear quadrupole moments (NQMom) in fm**2, nuclear magnetic moments (NMagM)
  in nuclear magnetons)

  Atom         1           2           3           4
 IAtWgt=           7           1           9           1
 AtmWgt=   7.0160045   1.0078250   9.0121825   1.0078250
 NucSpn=           3           1           3           1
 AtZEff=   0.0000000   0.0000000   0.0000000   0.0000000
 NQMom=   -4.0100000   0.0000000   5.2880000   0.0000000
 NMagM=    3.2564240   2.7928460  -1.1779000   2.7928460
 AtZNuc=   3.0000000   1.0000000   4.0000000   1.0000000
 Leave Link  101 at Sat Mar 28 20:12:37 2026, MaxMem=    33554432 cpu:         0.0
 (Enter C:\G09W\l202.exe)
                          Input orientation:                          
 ---------------------------------------------------------------------
 Center     Atomic      Atomic             Coordinates (Angstroms)
 Number     Number       Type             X           Y           Z
 ---------------------------------------------------------------------
      1          3           0        4.644740    1.330443    0.000000
      2          1           0        3.114740    1.330443    0.000000
      3          4           0        6.426566   -3.116180    0.000000
      4          1           0        5.236566   -3.116180    0.000000
 ---------------------------------------------------------------------
                    Distance matrix (angstroms):
                    1          2          3          4
     1  Li   0.000000
     2  H    1.530000   0.000000
     3  Be   4.790340   5.544425   0.000000
     4  H    4.485834   4.926926   1.190000   0.000000
 Stoichiometry    BeH2Li(2)
 Framework group  CS[SG(BeH2Li)]
 Deg. of freedom     5
 Full point group                 CS      NOp   2
 Largest Abelian subgroup         CS      NOp   2
 Largest concise Abelian subgroup C1      NOp   1
                         Standard orientation:                         
 ---------------------------------------------------------------------
 Center     Atomic      Atomic             Coordinates (Angstroms)
 Number     Number       Type             X           Y           Z
 ---------------------------------------------------------------------
      1          3           0        0.280537    2.548885    0.000000
      2          1           0       -1.139682    3.117987    0.000000
      3          4           0        0.280537   -2.241455    0.000000
      4          1           0       -0.824078   -1.798820    0.000000
 ---------------------------------------------------------------------
 Rotational constants (GHZ):    178.1517965      4.8626039      4.7334069
 Leave Link  202 at Sat Mar 28 20:12:37 2026, MaxMem=    33554432 cpu:         0.0
 (Enter C:\G09W\l301.exe)
 Standard basis: 3-21G (6D, 7F)
 Ernie: Thresh=  0.10000D-02 Tol=  0.10000D-05 Strict=F.
 There are    18 symmetry adapted cartesian basis functions of A'  symmetry.
 There are     4 symmetry adapted cartesian basis functions of A"  symmetry.
 There are    18 symmetry adapted basis functions of A'  symmetry.
 There are     4 symmetry adapted basis functions of A"  symmetry.
    22 basis functions,    36 primitive gaussians,    22 cartesian basis functions
     5 alpha electrons        4 beta electrons
       nuclear repulsion energy         4.9850366231 Hartrees.
 IExCor=  402 DFT=T Ex+Corr=B3LYP ExCW=0 ScaHFX=  0.200000
 ScaDFX=  0.800000  0.720000  1.000000  0.810000 ScalE2=  1.000000  1.000000
 IRadAn=      0 IRanWt=     -1 IRanGd=            0 ICorTp=0 IEmpDi=  4
 NAtoms=    4 NActive=    4 NUniq=    4 SFac= 1.00D+00 NAtFMM=   60 NAOKFM=F Big=F
 Integral buffers will be    262144 words long.
 Raffenetti 2 integral format.
 Two-electron integral symmetry is turned on.
 Leave Link  301 at Sat Mar 28 20:12:37 2026, MaxMem=    33554432 cpu:         0.0
 (Enter C:\G09W\l302.exe)
 NPDir=0 NMtPBC=     1 NCelOv=     1 NCel=       1 NClECP=     1 NCelD=      1
         NCelK=      1 NCelE2=     1 NClLst=     1 CellRange=     0.0.
 One-electron integrals computed using PRISM.
 NBasis=    22 RedAO= T EigKep=  8.94D-02  NBF=    18     4
 NBsUse=    22 1.00D-06 EigRej= -1.00D+00 NBFU=    18     4
 Precomputing XC quadrature grid using
 IXCGrd= 4 IRadAn=           0 IRanWt=          -1 IRanGd=           0 AccXCQ= 0.00D+00.
 Generated NRdTot=       0 NPtTot=           0 NUsed=           0 NTot=          16
 NSgBfM=    22    22    22    22    22 MxSgAt=     4 MxSgA2=     4.
 Leave Link  302 at Sat Mar 28 20:12:37 2026, MaxMem=    33554432 cpu:         0.0
 (Enter C:\G09W\l303.exe)
 DipDrv:  MaxL=1.
 Leave Link  303 at Sat Mar 28 20:12:37 2026, MaxMem=    33554432 cpu:         0.0
 (Enter C:\G09W\l401.exe)
 ExpMin= 2.86D-02 ExpMax= 7.19D+01 ExpMxC= 7.19D+01 IAcc=3 IRadAn=         5 AccDes= 0.00D+00
 Harris functional with IExCor=  402 and IRadAn=       5 diagonalized for initial guess.
 HarFok:  IExCor=  402 AccDes= 0.00D+00 IRadAn=         5 IDoV= 1 UseB2=F ITyADJ=14
 ICtDFT=  3500011 ScaDFX=  1.000000  1.000000  1.000000  1.000000
 FoFCou: FMM=F IPFlag=           0 FMFlag=      100000 FMFlg1=           0
         NFxFlg=           0 DoJE=T BraDBF=F KetDBF=T FulRan=T
         wScrn=  0.000000 ICntrl=     500 IOpCl=  0 I1Cent=   200000004 NGrid=           0
         NMat0=    1 NMatS0=      1 NMatT0=    0 NMatD0=    1 NMtDS0=    0 NMtDT0=    0
 Petite list used in FoFCou.
 Harris En= -23.2207967307836    
 JPrj=0 DoOrth=F DoCkMO=F.
 Initial guess orbital symmetries:
 Alpha Orbitals:
       Occupied  (A') (A') (A') (A') (A')
       Virtual   (A') (A") (A') (A") (A') (A') (A') (A") (A') (A')
                 (A') (A") (A') (A') (A') (A') (A')
 Beta  Orbitals:
       Occupied  (A') (A') (A') (A')
       Virtual   (A') (A') (A") (A') (A") (A') (A') (A') (A") (A')
                 (A') (A') (A") (A') (A') (A') (A') (A')
 The electronic state of the initial guess is 2-A'.
 Initial guess <Sx>= 0.0000 <Sy>= 0.0000 <Sz>= 0.5000 <S**2>= 0.7500 S= 0.5000
 Leave Link  401 at Sat Mar 28 20:12:38 2026, MaxMem=    33554432 cpu:         1.0
 (Enter C:\G09W\l502.exe)
 UHF open shell SCF:
 Using DIIS extrapolation, IDIIS=  1040.
 Integral symmetry usage will be decided dynamically.
 Keep R1 and R2 ints in memory in symmetry-blocked form, NReq=914551.
 IVT=       20170 IEndB=       20170 NGot=    33554432 MDV=    33495625
 LenX=    33495625 LenY=    33494700
 Requested convergence on RMS density matrix=1.00D-08 within 128 cycles.
 Requested convergence on MAX density matrix=1.00D-06.
 Requested convergence on             energy=1.00D-06.
 No special actions if energy rises.
 FoFCou: FMM=F IPFlag=           0 FMFlag=           0 FMFlg1=           0
         NFxFlg=           0 DoJE=F BraDBF=F KetDBF=F FulRan=T
         wScrn=  0.000000 ICntrl=     600 IOpCl=  0 I1Cent=           0 NGrid=           0
         NMat0=    1 NMatS0=    253 NMatT0=    0 NMatD0=    1 NMtDS0=    0 NMtDT0=    0
 Petite list used in FoFCou.

 Cycle   1  Pass 1  IDiag  1:
 E= -23.1316181807559    
 DIIS: error= 4.79D-02 at cycle   1 NSaved=   1.
 NSaved= 1 IEnMin= 1 EnMin= -23.1316181807559     IErMin= 1 ErrMin= 4.79D-02
 ErrMax= 4.79D-02  0.00D+00 EMaxC= 1.00D-01 BMatC= 1.06D-01 BMatP= 1.06D-01
 IDIUse=3 WtCom= 5.21D-01 WtEn= 4.79D-01
 Coeff-Com:  0.100D+01
 Coeff-En:   0.100D+01
 Coeff:      0.100D+01
 Gap=     0.147 Goal=   None    Shift=    0.000
 Gap=     0.008 Goal=   None    Shift=    0.000
 GapD=    0.008 DampG=0.250 DampE=0.500 DampFc=0.2500 IDamp=-1.
 Damping current iteration by 2.50D-01
 RMSDP=2.11D-02 MaxDP=1.80D-01              OVMax= 3.75D-01

 Cycle   2  Pass 1  IDiag  1:
 E= -23.1497179080007     Delta-E=       -0.018099727245 Rises=F Damp=T
 DIIS: error= 2.77D-02 at cycle   2 NSaved=   2.
 NSaved= 2 IEnMin= 2 EnMin= -23.1497179080007     IErMin= 2 ErrMin= 2.77D-02
 ErrMax= 2.77D-02  0.00D+00 EMaxC= 1.00D-01 BMatC= 4.00D-02 BMatP= 1.06D-01
 IDIUse=3 WtCom= 7.23D-01 WtEn= 2.77D-01
 Coeff-Com: -0.155D+01 0.255D+01
 Coeff-En:   0.000D+00 0.100D+01
 Coeff:     -0.112D+01 0.212D+01
 Gap=     0.122 Goal=   None    Shift=    0.000
 Gap=     0.120 Goal=   None    Shift=    0.000
 RMSDP=9.43D-03 MaxDP=8.66D-02 DE=-1.81D-02 OVMax= 1.83D-01

 Cycle   3  Pass 1  IDiag  1:
 E= -23.1882522451369     Delta-E=       -0.038534337136 Rises=F Damp=F
 DIIS: error= 4.04D-03 at cycle   3 NSaved=   3.
 NSaved= 3 IEnMin= 3 EnMin= -23.1882522451369     IErMin= 3 ErrMin= 4.04D-03
 ErrMax= 4.04D-03  0.00D+00 EMaxC= 1.00D-01 BMatC= 3.64D-04 BMatP= 4.00D-02
 IDIUse=3 WtCom= 9.60D-01 WtEn= 4.04D-02
 Coeff-Com: -0.444D+00 0.754D+00 0.690D+00
 Coeff-En:   0.000D+00 0.000D+00 0.100D+01
 Coeff:     -0.426D+00 0.724D+00 0.702D+00
 Gap=     0.133 Goal=   None    Shift=    0.000
 Gap=     0.129 Goal=   None    Shift=    0.000
 RMSDP=8.42D-04 MaxDP=8.05D-03 DE=-3.85D-02 OVMax= 1.11D-02

 Cycle   4  Pass 1  IDiag  1:
 E= -23.1884205475665     Delta-E=       -0.000168302430 Rises=F Damp=F
 DIIS: error= 1.53D-03 at cycle   4 NSaved=   4.
 NSaved= 4 IEnMin= 4 EnMin= -23.1884205475665     IErMin= 4 ErrMin= 1.53D-03
 ErrMax= 1.53D-03  0.00D+00 EMaxC= 1.00D-01 BMatC= 6.23D-05 BMatP= 3.64D-04
 IDIUse=3 WtCom= 9.85D-01 WtEn= 1.53D-02
 Coeff-Com: -0.957D-01 0.111D+00-0.162D+00 0.115D+01
 Coeff-En:   0.000D+00 0.000D+00 0.000D+00 0.100D+01
 Coeff:     -0.942D-01 0.109D+00-0.160D+00 0.115D+01
 Gap=     0.129 Goal=   None    Shift=    0.000
 Gap=     0.126 Goal=   None    Shift=    0.000
 RMSDP=3.30D-04 MaxDP=3.29D-03 DE=-1.68D-04 OVMax= 4.75D-03

 Cycle   5  Pass 1  IDiag  1:
 E= -23.1884590258551     Delta-E=       -0.000038478289 Rises=F Damp=F
 DIIS: error= 2.35D-04 at cycle   5 NSaved=   5.
 NSaved= 5 IEnMin= 5 EnMin= -23.1884590258551     IErMin= 5 ErrMin= 2.35D-04
 ErrMax= 2.35D-04  0.00D+00 EMaxC= 1.00D-01 BMatC= 1.52D-06 BMatP= 6.23D-05
 IDIUse=3 WtCom= 9.98D-01 WtEn= 2.35D-03
 Coeff-Com:  0.182D-02-0.165D-02-0.105D-01-0.209D+00 0.122D+01
 Coeff-En:   0.000D+00 0.000D+00 0.000D+00 0.000D+00 0.100D+01
 Coeff:      0.182D-02-0.165D-02-0.104D-01-0.209D+00 0.122D+01
 Gap=     0.129 Goal=   None    Shift=    0.000
 Gap=     0.126 Goal=   None    Shift=    0.000
 RMSDP=6.72D-05 MaxDP=5.90D-04 DE=-3.85D-05 OVMax= 1.25D-03

 Cycle   6  Pass 1  IDiag  1:
 E= -23.1884602623043     Delta-E=       -0.000001236449 Rises=F Damp=F
 DIIS: error= 2.61D-05 at cycle   6 NSaved=   6.
 NSaved= 6 IEnMin= 6 EnMin= -23.1884602623043     IErMin= 6 ErrMin= 2.61D-05
 ErrMax= 2.61D-05  0.00D+00 EMaxC= 1.00D-01 BMatC= 1.73D-08 BMatP= 1.52D-06
 IDIUse=1 WtCom= 1.00D+00 WtEn= 0.00D+00
 Coeff-Com: -0.236D-03 0.790D-03 0.207D-02-0.218D-02-0.148D+00 0.115D+01
 Coeff:     -0.236D-03 0.790D-03 0.207D-02-0.218D-02-0.148D+00 0.115D+01
 Gap=     0.129 Goal=   None    Shift=    0.000
 Gap=     0.125 Goal=   None    Shift=    0.000
 RMSDP=1.05D-05 MaxDP=9.87D-05 DE=-1.24D-06 OVMax= 1.89D-04

 Cycle   7  Pass 1  IDiag  1:
 E= -23.1884602832722     Delta-E=       -0.000000020968 Rises=F Damp=F
 DIIS: error= 3.38D-06 at cycle   7 NSaved=   7.
 NSaved= 7 IEnMin= 7 EnMin= -23.1884602832722     IErMin= 7 ErrMin= 3.38D-06
 ErrMax= 3.38D-06  0.00D+00 EMaxC= 1.00D-01 BMatC= 4.17D-10 BMatP= 1.73D-08
 IDIUse=1 WtCom= 1.00D+00 WtEn= 0.00D+00
 Coeff-Com:  0.412D-03-0.720D-03-0.183D-03 0.435D-02 0.130D-01-0.318D+00
 Coeff-Com:  0.130D+01
 Coeff:      0.412D-03-0.720D-03-0.183D-03 0.435D-02 0.130D-01-0.318D+00
 Coeff:      0.130D+01
 Gap=     0.129 Goal=   None    Shift=    0.000
 Gap=     0.125 Goal=   None    Shift=    0.000
 RMSDP=2.41D-06 MaxDP=2.22D-05 DE=-2.10D-08 OVMax= 6.81D-05

 Cycle   8  Pass 1  IDiag  1:
 E= -23.1884602843561     Delta-E=       -0.000000001084 Rises=F Damp=F
 DIIS: error= 1.94D-06 at cycle   8 NSaved=   8.
 NSaved= 8 IEnMin= 8 EnMin= -23.1884602843561     IErMin= 8 ErrMin= 1.94D-06
 ErrMax= 1.94D-06  0.00D+00 EMaxC= 1.00D-01 BMatC= 6.64D-11 BMatP= 4.17D-10
 IDIUse=1 WtCom= 1.00D+00 WtEn= 0.00D+00
 Coeff-Com:  0.533D-05-0.519D-05 0.181D-04 0.320D-04 0.943D-03 0.317D-01
 Coeff-Com: -0.402D+00 0.137D+01
 Coeff:      0.533D-05-0.519D-05 0.181D-04 0.320D-04 0.943D-03 0.317D-01
 Coeff:     -0.402D+00 0.137D+01
 Gap=     0.129 Goal=   None    Shift=    0.000
 Gap=     0.125 Goal=   None    Shift=    0.000
 RMSDP=7.79D-07 MaxDP=7.92D-06 DE=-1.08D-09 OVMax= 1.81D-05

 Cycle   9  Pass 1  IDiag  1:
 E= -23.1884602844535     Delta-E=       -0.000000000097 Rises=F Damp=F
 DIIS: error= 2.03D-07 at cycle   9 NSaved=   9.
 NSaved= 9 IEnMin= 9 EnMin= -23.1884602844535     IErMin= 9 ErrMin= 2.03D-07
 ErrMax= 2.03D-07  0.00D+00 EMaxC= 1.00D-01 BMatC= 8.89D-13 BMatP= 6.64D-11
 IDIUse=1 WtCom= 1.00D+00 WtEn= 0.00D+00
 Coeff-Com: -0.251D-04 0.399D-04 0.387D-05-0.140D-03-0.616D-03 0.106D-01
 Coeff-Com: -0.206D-01-0.945D-01 0.111D+01
 Coeff:     -0.251D-04 0.399D-04 0.387D-05-0.140D-03-0.616D-03 0.106D-01
 Coeff:     -0.206D-01-0.945D-01 0.111D+01
 Gap=     0.129 Goal=   None    Shift=    0.000
 Gap=     0.125 Goal=   None    Shift=    0.000
 RMSDP=8.76D-08 MaxDP=8.23D-07 DE=-9.74D-11 OVMax= 1.69D-06

 Cycle  10  Pass 1  IDiag  1:
 E= -23.1884602844551     Delta-E=       -0.000000000002 Rises=F Damp=F
 DIIS: error= 1.26D-07 at cycle  10 NSaved=  10.
 NSaved=10 IEnMin=10 EnMin= -23.1884602844551     IErMin=10 ErrMin= 1.26D-07
 ErrMax= 1.26D-07  0.00D+00 EMaxC= 1.00D-01 BMatC= 2.26D-13 BMatP= 8.89D-13
 IDIUse=1 WtCom= 1.00D+00 WtEn= 0.00D+00
 Coeff-Com: -0.244D-05 0.274D-05-0.251D-05-0.314D-05 0.325D-03-0.603D-02
 Coeff-Com:  0.346D-01-0.672D-01-0.379D+00 0.142D+01
 Coeff:     -0.244D-05 0.274D-05-0.251D-05-0.314D-05 0.325D-03-0.603D-02
 Coeff:      0.346D-01-0.672D-01-0.379D+00 0.142D+01
 Gap=     0.129 Goal=   None    Shift=    0.000
 Gap=     0.125 Goal=   None    Shift=    0.000
 RMSDP=4.16D-08 MaxDP=5.52D-07 DE=-1.63D-12 OVMax= 8.49D-07

 Cycle  11  Pass 1  IDiag  1:
 E= -23.1884602844555     Delta-E=        0.000000000000 Rises=F Damp=F
 DIIS: error= 2.49D-08 at cycle  11 NSaved=  11.
 NSaved=11 IEnMin=11 EnMin= -23.1884602844555     IErMin=11 ErrMin= 2.49D-08
 ErrMax= 2.49D-08  0.00D+00 EMaxC= 1.00D-01 BMatC= 9.55D-15 BMatP= 2.26D-13
 IDIUse=1 WtCom= 1.00D+00 WtEn= 0.00D+00
 Coeff-Com:  0.770D-06-0.109D-05-0.103D-05 0.572D-05-0.475D-04 0.121D-02
 Coeff-Com: -0.105D-01 0.305D-01 0.451D-01-0.427D+00 0.136D+01
 Coeff:      0.770D-06-0.109D-05-0.103D-05 0.572D-05-0.475D-04 0.121D-02
 Coeff:     -0.105D-01 0.305D-01 0.451D-01-0.427D+00 0.136D+01
 Gap=     0.129 Goal=   None    Shift=    0.000
 Gap=     0.125 Goal=   None    Shift=    0.000
 RMSDP=9.85D-09 MaxDP=1.31D-07 DE=-3.77D-13 OVMax= 1.95D-07

 SCF Done:  E(UB3LYP) =  -23.1884602845     A.U. after   11 cycles
            NFock= 11  Conv=0.98D-08     -V/T= 2.0052
 <Sx>= 0.0000 <Sy>= 0.0000 <Sz>= 0.5000 <S**2>= 0.7506 S= 0.5003
 <L.S>= 0.000000000000E+00
 KE= 2.306893494472D+01 PE=-6.287757146012D+01 EE= 1.163513960782D+01
 Annihilation of the first spin contaminant:
 S**2 before annihilation     0.7506,   after     0.7500
 Leave Link  502 at Sat Mar 28 20:12:38 2026, MaxMem=    33554432 cpu:         0.0
 (Enter C:\G09W\l601.exe)
 Copying SCF densities to generalized density rwf, IOpCl= 1 IROHF=0.

 **********************************************************************

            Population analysis using the SCF density.

 **********************************************************************

 Orbital symmetries:
 Alpha Orbitals:
       Occupied  (A') (A') (A') (A') (A')
       Virtual   (A') (A") (A') (A") (A') (A') (A') (A") (A') (A')
                 (A') (A") (A') (A') (A') (A') (A')
 Beta  Orbitals:
       Occupied  (A') (A') (A') (A')
       Virtual   (A') (A') (A") (A') (A") (A') (A') (A') (A") (A')
                 (A') (A') (A") (A') (A') (A') (A') (A')
 The electronic state is 2-A'.
 Alpha  occ. eigenvalues --   -4.03776  -1.97588  -0.37274  -0.20647  -0.19646
 Alpha virt. eigenvalues --   -0.06774  -0.05659  -0.03561  -0.00329   0.00727
 Alpha virt. eigenvalues --    0.06680   0.11407   0.12214   0.12829   0.15010
 Alpha virt. eigenvalues --    0.25222   0.28622   0.29578   0.31092   0.46457
 Alpha virt. eigenvalues --    1.17156   1.19427
  Beta  occ. eigenvalues --   -4.02965  -1.97588  -0.36000  -0.19644
  Beta virt. eigenvalues --   -0.07095  -0.05276  -0.03590  -0.02859  -0.00257
  Beta virt. eigenvalues --    0.01160   0.06744   0.11424   0.12203   0.12867
  Beta virt. eigenvalues --    0.16442   0.25211   0.29632   0.31022   0.35467
  Beta virt. eigenvalues --    0.48499   1.17226   1.20989
          Condensed to atoms (all electrons):
               1          2          3          4
     1  Li   2.464451   0.378905   0.006063   0.000369
     2  H    0.378905   0.780334  -0.000054  -0.000002
     3  Be   0.006063  -0.000054   3.497899   0.405992
     4  H    0.000369  -0.000002   0.405992   0.674769
          Atomic-Atomic Spin Densities.
               1          2          3          4
     1  Li   0.000416   0.000010   0.004944  -0.000704
     2  H    0.000010   0.000295   0.000006   0.000000
     3  Be   0.004944   0.000006   0.926657  -0.011141
     4  H   -0.000704   0.000000  -0.011141   0.086402
 Mulliken charges and spin densities:
               1          2
     1  Li   0.150212   0.004666
     2  H   -0.159183   0.000311
     3  Be   0.090100   0.920466
     4  H   -0.081129   0.074557
 Sum of Mulliken charges =   0.00000   1.00000
 Mulliken charges and spin densities with hydrogens summed into heavy atoms:
               1          2
     1  Li  -0.008971   0.004977
     3  Be   0.008971   0.995023
 Electronic spatial extent (au):  <R**2>=            235.7665
 Charge=              0.0000 electrons
 Dipole moment (field-independent basis, Debye):
    X=              4.9481    Y=             -2.2796    Z=              0.0000  Tot=              5.4480
 Quadrupole moment (field-independent basis, Debye-Ang):
   XX=            -17.2747   YY=            -22.9076   ZZ=            -12.4028
   XY=             15.6049   XZ=              0.0000   YZ=              0.0000
 Traceless Quadrupole moment (field-independent basis, Debye-Ang):
   XX=              0.2537   YY=             -5.3793   ZZ=              5.1256
   XY=             15.6049   XZ=              0.0000   YZ=              0.0000
 Octapole moment (field-independent basis, Debye-Ang**2):
  XXX=              6.2608  YYY=            -53.0852  ZZZ=              0.0000  XYY=             36.2051
  XXY=              0.3554  XXZ=              0.0000  XZZ=              2.3090  YZZ=             -2.6556
  YYZ=              0.0000  XYZ=              0.0000
 Hexadecapole moment (field-independent basis, Debye-Ang**3):
 XXXX=            -66.8594 YYYY=           -688.7806 ZZZZ=            -29.7582 XXXY=             57.7808
 XXXZ=              0.0000 YYYX=            178.4880 YYYZ=              0.0000 ZZZX=              0.0000
 ZZZY=              0.0000 XXYY=           -130.0927 XXZZ=            -15.7250 YYZZ=            -91.7595
 XXYZ=              0.0000 YYXZ=              0.0000 ZZXY=             16.2482
 N-N= 4.985036623129D+00 E-N=-6.287757141783D+01  KE= 2.306893494472D+01
 Symmetry A'   KE= 2.306893494472D+01
 Symmetry A"   KE= 0.000000000000D+00
                          Isotropic Fermi Contact Couplings
        Atom                 a.u.       MegaHertz       Gauss      10(-4) cm-1
     1  Li(7)             -0.00009      -0.14962      -0.05339      -0.04991
     2  H(1)               0.00010       0.42744       0.15252       0.14258
     3  Be(9)              0.21488    -135.03088     -48.18237     -45.04145
     4  H(1)               0.03460     154.66518      55.18838      51.59075
 --------------------------------------------------------
       Center         ----  Spin Dipole Couplings  ----
                      3XX-RR        3YY-RR        3ZZ-RR
 --------------------------------------------------------
     1   Atom       -0.001033      0.002210     -0.001177
     2   Atom       -0.000430      0.001143     -0.000713
     3   Atom        0.099631     -0.039221     -0.060409
     4   Atom        0.020686     -0.007809     -0.012877
 --------------------------------------------------------
                        XY            XZ            YZ
 --------------------------------------------------------
     1   Atom       -0.000491      0.000000      0.000000
     2   Atom       -0.000656      0.000000      0.000000
     3   Atom       -0.057992      0.000000      0.000000
     4   Atom       -0.012985      0.000000      0.000000
 --------------------------------------------------------


 ---------------------------------------------------------------------------------
              Anisotropic Spin Dipole Couplings in Principal Axis System
 ---------------------------------------------------------------------------------

       Atom             a.u.   MegaHertz   Gauss  10(-4) cm-1        Axes

              Baa    -0.0012    -0.244    -0.087    -0.081  0.0000  0.0000  1.0000
     1 Li(7)  Bbb    -0.0011    -0.229    -0.082    -0.076  0.9892  0.1464  0.0000
              Bcc     0.0023     0.473     0.169     0.158 -0.1464  0.9892  0.0000
 
              Baa    -0.0007    -0.381    -0.136    -0.127  0.0000  0.0000  1.0000
     2 H(1)   Bbb    -0.0007    -0.356    -0.127    -0.119  0.9402  0.3405  0.0000
              Bcc     0.0014     0.737     0.263     0.246 -0.3405  0.9402  0.0000
 
              Baa    -0.0604     4.531     1.617     1.511  0.0000  0.0000  1.0000
     3 Be(9)  Bbb    -0.0603     4.520     1.613     1.508  0.3410  0.9401  0.0000
              Bcc     0.1207    -9.051    -3.230    -3.019  0.9401 -0.3410  0.0000
 
              Baa    -0.0129    -6.871    -2.452    -2.292  0.0000  0.0000  1.0000
     4 H(1)   Bbb    -0.0128    -6.850    -2.444    -2.285  0.3612  0.9325  0.0000
              Bcc     0.0257    13.721     4.896     4.577  0.9325 -0.3612  0.0000
 

 ---------------------------------------------------------------------------------

 No NMR shielding tensors so no spin-rotation constants.
 Leave Link  601 at Sat Mar 28 20:12:38 2026, MaxMem=    33554432 cpu:         0.0
 (Enter C:\G09W\l9999.exe)
 1|1|UNPC-INANI_LAP|SP|UB3LYP|3-21G|Be1H2Li1(2)|EMMAN|28-Mar-2026|0||#p
  b3lyp/3-21g||Title Card Required - Distancia +3.80A - Paso 19||0,2|Li
 ,0,4.64474019,1.33044279,0.|H,0,3.11474019,1.33044279,0.|Be,0,6.426566
 44,-3.11617971,0.|H,0,5.23656644,-3.11617971,0.||Version=IA32W-G09RevD
 .01|State=2-A'|HF=-23.1884603|S2=0.750553|S2-1=0.|S2A=0.75|RMSD=9.849e
 -009|Dipole=2.1406529,-0.1084041,0.|Quadrupole=-8.4024647,4.5917318,3.
 8107329,9.8374989,0.,0.|PG=CS [SG(Be1H2Li1)]||@


 MAN IS A SINGULAR CREATURE.  HE HAS A SET OF GIFTS
 WHICH MAKE HIM UNIQUE AMONG THE ANIMALS: SO THAT, 
 UNLIKE THEM, HE IS NOT A FIGURE IN THE LANDSCAPE --
 HE IS A SHAPER OF THE LANDSCAPE.

                       -- JACOB BRONOWSKI
 Job cpu time:       0 days  0 hours  0 minutes  1.0 seconds.
 File lengths (MBytes):  RWF=      5 Int=      0 D2E=      0 Chk=      1 Scr=      1
 Normal termination of Gaussian 09 at Sat Mar 28 20:12:38 2026.
