 Entering Link 1 = C:\G09W\l1.exe PID=      9260.
  
 Copyright (c) 1988,1990,1992,1993,1995,1998,2003,2009,2013,
            Gaussian, Inc.  All Rights Reserved.
  
 This is part of the Gaussian(R) 09 program.  It is based on
 the Gaussian(R) 03 system (copyright 2003, Gaussian, Inc.),
 the Gaussian(R) 98 system (copyright 1998, Gaussian, Inc.),
 the Gaussian(R) 94 system (copyright 1995, Gaussian, Inc.),
 the Gaussian 92(TM) system (copyright 1992, Gaussian, Inc.),
 the Gaussian 90(TM) system (copyright 1990, Gaussian, Inc.),
 the Gaussian 88(TM) system (copyright 1988, Gaussian, Inc.),
 the Gaussian 86(TM) system (copyright 1986, Carnegie Mellon
 University), and the Gaussian 82(TM) system (copyright 1983,
 Carnegie Mellon University). Gaussian is a federally registered
 trademark of Gaussian, Inc.
  
 This software contains proprietary and confidential information,
 including trade secrets, belonging to Gaussian, Inc.
  
 This software is provided under written license and may be
 used, copied, transmitted, or stored only in accord with that
 written license.
  
 The following legend is applicable only to US Government
 contracts under FAR:
  
                    RESTRICTED RIGHTS LEGEND
  
 Use, reproduction and disclosure by the US Government is
 subject to restrictions as set forth in subparagraphs (a)
 and (c) of the Commercial Computer Software - Restricted
 Rights clause in FAR 52.227-19.
  
 Gaussian, Inc.
 340 Quinnipiac St., Bldg. 40, Wallingford CT 06492
  
  
 ---------------------------------------------------------------
 Warning -- This program may not be used in any manner that
 competes with the business of Gaussian, Inc. or will provide
 assistance to any competitor of Gaussian, Inc.  The licensee
 of this program is prohibited from giving any competitor of
 Gaussian, Inc. access to this program.  By using this program,
 the user acknowledges that Gaussian, Inc. is engaged in the
 business of creating and licensing software in the field of
 computational chemistry and represents and warrants to the
 licensee that it is not a competitor of Gaussian, Inc. and that
 it will not use this program in any manner prohibited above.
 ---------------------------------------------------------------
  

 Cite this work as:
 Gaussian 09, Revision D.01,
 M. J. Frisch, G. W. Trucks, H. B. Schlegel, G. E. Scuseria, 
 M. A. Robb, J. R. Cheeseman, G. Scalmani, V. Barone, B. Mennucci, 
 G. A. Petersson, H. Nakatsuji, M. Caricato, X. Li, H. P. Hratchian, 
 A. F. Izmaylov, J. Bloino, G. Zheng, J. L. Sonnenberg, M. Hada, 
 M. Ehara, K. Toyota, R. Fukuda, J. Hasegawa, M. Ishida, T. Nakajima, 
 Y. Honda, O. Kitao, H. Nakai, T. Vreven, J. A. Montgomery, Jr., 
 J. E. Peralta, F. Ogliaro, M. Bearpark, J. J. Heyd, E. Brothers, 
 K. N. Kudin, V. N. Staroverov, T. Keith, R. Kobayashi, J. Normand, 
 K. Raghavachari, A. Rendell, J. C. Burant, S. S. Iyengar, J. Tomasi, 
 M. Cossi, N. Rega, J. M. Millam, M. Klene, J. E. Knox, J. B. Cross, 
 V. Bakken, C. Adamo, J. Jaramillo, R. Gomperts, R. E. Stratmann, 
 O. Yazyev, A. J. Austin, R. Cammi, C. Pomelli, J. W. Ochterski, 
 R. L. Martin, K. Morokuma, V. G. Zakrzewski, G. A. Voth, 
 P. Salvador, J. J. Dannenberg, S. Dapprich, A. D. Daniels, 
 O. Farkas, J. B. Foresman, J. V. Ortiz, J. Cioslowski, 
 and D. J. Fox, Gaussian, Inc., Wallingford CT, 2013.
 
 ******************************************
 Gaussian 09:  IA32W-G09RevD.01 24-Apr-2013
                28-Mar-2026 
 ******************************************
 %chk=C:\Users\emman\Escritorio\quimica-enlaces\molecula\bn.chk
 --------------
 #p b3lyp/3-21g
 --------------
 1/38=1/1;
 2/12=2,17=6,18=5,40=1/2;
 3/5=5,11=2,16=1,25=1,30=1,74=-5/1,2,3;
 4//1;
 5/5=2,38=5/2;
 6/7=2,8=2,9=2,10=2,28=1/1;
 99/5=1,9=1/99;
 Leave Link    1 at Sat Mar 28 20:12:35 2026, MaxMem=           0 cpu:         0.0
 (Enter C:\G09W\l101.exe)
 ------------------------------------------------
 Title Card Required - Distancia +3.40A - Paso 17
 ------------------------------------------------
 Symbolic Z-matrix:
 Charge =  0 Multiplicity = 2
 Li                    4.64474   1.33044   0. 
 H                     3.11474   1.33044   0. 
 Be                    6.26579  -2.74991   0. 
 H                     5.07579  -2.74991   0. 
 
 NAtoms=      4 NQM=        4 NQMF=       0 NMMI=      0 NMMIF=      0
                NMic=       0 NMicF=      0.
                    Isotopes and Nuclear Properties:
 (Nuclear quadrupole moments (NQMom) in fm**2, nuclear magnetic moments (NMagM)
  in nuclear magnetons)

  Atom         1           2           3           4
 IAtWgt=           7           1           9           1
 AtmWgt=   7.0160045   1.0078250   9.0121825   1.0078250
 NucSpn=           3           1           3           1
 AtZEff=   0.0000000   0.0000000   0.0000000   0.0000000
 NQMom=   -4.0100000   0.0000000   5.2880000   0.0000000
 NMagM=    3.2564240   2.7928460  -1.1779000   2.7928460
 AtZNuc=   3.0000000   1.0000000   4.0000000   1.0000000
 Leave Link  101 at Sat Mar 28 20:12:35 2026, MaxMem=    33554432 cpu:         0.0
 (Enter C:\G09W\l202.exe)
                          Input orientation:                          
 ---------------------------------------------------------------------
 Center     Atomic      Atomic             Coordinates (Angstroms)
 Number     Number       Type             X           Y           Z
 ---------------------------------------------------------------------
      1          3           0        4.644740    1.330443    0.000000
      2          1           0        3.114740    1.330443    0.000000
      3          4           0        6.265795   -2.749912    0.000000
      4          1           0        5.075795   -2.749912    0.000000
 ---------------------------------------------------------------------
                    Distance matrix (angstroms):
                    1          2          3          4
     1  Li   0.000000
     2  H    1.530000   0.000000
     3  Be   4.390570   5.155428   0.000000
     4  H    4.103060   4.527143   1.190000   0.000000
 Stoichiometry    BeH2Li(2)
 Framework group  CS[SG(BeH2Li)]
 Deg. of freedom     5
 Full point group                 CS      NOp   2
 Largest Abelian subgroup         CS      NOp   2
 Largest concise Abelian subgroup C1      NOp   1
                         Standard orientation:                         
 ---------------------------------------------------------------------
 Center     Atomic      Atomic             Coordinates (Angstroms)
 Number     Number       Type             X           Y           Z
 ---------------------------------------------------------------------
      1          3           0        0.280869    2.327621    0.000000
      2          1           0       -1.141029    2.892517    0.000000
      3          4           0        0.280869   -2.062949    0.000000
      4          1           0       -0.825052   -1.623586    0.000000
 ---------------------------------------------------------------------
 Rotational constants (GHZ):    178.0655396      5.7775538      5.5959852
 Leave Link  202 at Sat Mar 28 20:12:35 2026, MaxMem=    33554432 cpu:         0.0
 (Enter C:\G09W\l301.exe)
 Standard basis: 3-21G (6D, 7F)
 Ernie: Thresh=  0.10000D-02 Tol=  0.10000D-05 Strict=F.
 There are    18 symmetry adapted cartesian basis functions of A'  symmetry.
 There are     4 symmetry adapted cartesian basis functions of A"  symmetry.
 There are    18 symmetry adapted basis functions of A'  symmetry.
 There are     4 symmetry adapted basis functions of A"  symmetry.
    22 basis functions,    36 primitive gaussians,    22 cartesian basis functions
     5 alpha electrons        4 beta electrons
       nuclear repulsion energy         5.1770421112 Hartrees.
 IExCor=  402 DFT=T Ex+Corr=B3LYP ExCW=0 ScaHFX=  0.200000
 ScaDFX=  0.800000  0.720000  1.000000  0.810000 ScalE2=  1.000000  1.000000
 IRadAn=      0 IRanWt=     -1 IRanGd=            0 ICorTp=0 IEmpDi=  4
 NAtoms=    4 NActive=    4 NUniq=    4 SFac= 1.00D+00 NAtFMM=   60 NAOKFM=F Big=F
 Integral buffers will be    262144 words long.
 Raffenetti 2 integral format.
 Two-electron integral symmetry is turned on.
 Leave Link  301 at Sat Mar 28 20:12:35 2026, MaxMem=    33554432 cpu:         0.0
 (Enter C:\G09W\l302.exe)
 NPDir=0 NMtPBC=     1 NCelOv=     1 NCel=       1 NClECP=     1 NCelD=      1
         NCelK=      1 NCelE2=     1 NClLst=     1 CellRange=     0.0.
 One-electron integrals computed using PRISM.
 NBasis=    22 RedAO= T EigKep=  8.63D-02  NBF=    18     4
 NBsUse=    22 1.00D-06 EigRej= -1.00D+00 NBFU=    18     4
 Precomputing XC quadrature grid using
 IXCGrd= 4 IRadAn=           0 IRanWt=          -1 IRanGd=           0 AccXCQ= 0.00D+00.
 Generated NRdTot=       0 NPtTot=           0 NUsed=           0 NTot=          16
 NSgBfM=    22    22    22    22    22 MxSgAt=     4 MxSgA2=     4.
 Leave Link  302 at Sat Mar 28 20:12:35 2026, MaxMem=    33554432 cpu:         0.0
 (Enter C:\G09W\l303.exe)
 DipDrv:  MaxL=1.
 Leave Link  303 at Sat Mar 28 20:12:35 2026, MaxMem=    33554432 cpu:         0.0
 (Enter C:\G09W\l401.exe)
 ExpMin= 2.86D-02 ExpMax= 7.19D+01 ExpMxC= 7.19D+01 IAcc=3 IRadAn=         5 AccDes= 0.00D+00
 Harris functional with IExCor=  402 and IRadAn=       5 diagonalized for initial guess.
 HarFok:  IExCor=  402 AccDes= 0.00D+00 IRadAn=         5 IDoV= 1 UseB2=F ITyADJ=14
 ICtDFT=  3500011 ScaDFX=  1.000000  1.000000  1.000000  1.000000
 FoFCou: FMM=F IPFlag=           0 FMFlag=      100000 FMFlg1=           0
         NFxFlg=           0 DoJE=T BraDBF=F KetDBF=T FulRan=T
         wScrn=  0.000000 ICntrl=     500 IOpCl=  0 I1Cent=   200000004 NGrid=           0
         NMat0=    1 NMatS0=      1 NMatT0=    0 NMatD0=    1 NMtDS0=    0 NMtDT0=    0
 Petite list used in FoFCou.
 Harris En= -23.2207069475382    
 JPrj=0 DoOrth=F DoCkMO=F.
 Initial guess orbital symmetries:
 Alpha Orbitals:
       Occupied  (A') (A') (A') (A') (A')
       Virtual   (A') (A") (A') (A") (A') (A') (A') (A") (A') (A')
                 (A') (A") (A') (A') (A') (A') (A')
 Beta  Orbitals:
       Occupied  (A') (A') (A') (A')
       Virtual   (A') (A') (A") (A') (A") (A') (A') (A') (A") (A')
                 (A') (A') (A") (A') (A') (A') (A') (A')
 The electronic state of the initial guess is 2-A'.
 Initial guess <Sx>= 0.0000 <Sy>= 0.0000 <Sz>= 0.5000 <S**2>= 0.7500 S= 0.5000
 Leave Link  401 at Sat Mar 28 20:12:35 2026, MaxMem=    33554432 cpu:         0.0
 (Enter C:\G09W\l502.exe)
 UHF open shell SCF:
 Using DIIS extrapolation, IDIIS=  1040.
 Integral symmetry usage will be decided dynamically.
 Keep R1 and R2 ints in memory in symmetry-blocked form, NReq=914551.
 IVT=       20170 IEndB=       20170 NGot=    33554432 MDV=    33495625
 LenX=    33495625 LenY=    33494700
 Requested convergence on RMS density matrix=1.00D-08 within 128 cycles.
 Requested convergence on MAX density matrix=1.00D-06.
 Requested convergence on             energy=1.00D-06.
 No special actions if energy rises.
 FoFCou: FMM=F IPFlag=           0 FMFlag=           0 FMFlg1=           0
         NFxFlg=           0 DoJE=F BraDBF=F KetDBF=F FulRan=T
         wScrn=  0.000000 ICntrl=     600 IOpCl=  0 I1Cent=           0 NGrid=           0
         NMat0=    1 NMatS0=    253 NMatT0=    0 NMatD0=    1 NMtDS0=    0 NMtDT0=    0
 Petite list used in FoFCou.

 Cycle   1  Pass 1  IDiag  1:
 E= -23.1308540587822    
 DIIS: error= 4.68D-02 at cycle   1 NSaved=   1.
 NSaved= 1 IEnMin= 1 EnMin= -23.1308540587822     IErMin= 1 ErrMin= 4.68D-02
 ErrMax= 4.68D-02  0.00D+00 EMaxC= 1.00D-01 BMatC= 1.07D-01 BMatP= 1.07D-01
 IDIUse=3 WtCom= 5.32D-01 WtEn= 4.68D-01
 Coeff-Com:  0.100D+01
 Coeff-En:   0.100D+01
 Coeff:      0.100D+01
 Gap=     0.145 Goal=   None    Shift=    0.000
 Gap=     0.001 Goal=   None    Shift=    0.000
 GapD=    0.001 DampG=0.250 DampE=0.500 DampFc=0.2500 IDamp=-1.
 Damping current iteration by 2.50D-01
 RMSDP=2.14D-02 MaxDP=1.80D-01              OVMax= 3.97D-01

 Cycle   2  Pass 1  IDiag  1:
 E= -23.1489704248355     Delta-E=       -0.018116366053 Rises=F Damp=T
 DIIS: error= 2.68D-02 at cycle   2 NSaved=   2.
 NSaved= 2 IEnMin= 2 EnMin= -23.1489704248355     IErMin= 2 ErrMin= 2.68D-02
 ErrMax= 2.68D-02  0.00D+00 EMaxC= 1.00D-01 BMatC= 3.96D-02 BMatP= 1.07D-01
 IDIUse=3 WtCom= 7.32D-01 WtEn= 2.68D-01
 Coeff-Com: -0.152D+01 0.252D+01
 Coeff-En:   0.000D+00 0.100D+01
 Coeff:     -0.111D+01 0.211D+01
 Gap=     0.118 Goal=   None    Shift=    0.000
 Gap=     0.118 Goal=   None    Shift=    0.000
 RMSDP=9.25D-03 MaxDP=7.69D-02 DE=-1.81D-02 OVMax= 2.12D-01

 Cycle   3  Pass 1  IDiag  1:
 E= -23.1880078502709     Delta-E=       -0.039037425435 Rises=F Damp=F
 DIIS: error= 4.08D-03 at cycle   3 NSaved=   3.
 NSaved= 3 IEnMin= 3 EnMin= -23.1880078502709     IErMin= 3 ErrMin= 4.08D-03
 ErrMax= 4.08D-03  0.00D+00 EMaxC= 1.00D-01 BMatC= 4.60D-04 BMatP= 3.96D-02
 IDIUse=3 WtCom= 9.59D-01 WtEn= 4.08D-02
 Coeff-Com: -0.513D+00 0.857D+00 0.656D+00
 Coeff-En:   0.000D+00 0.000D+00 0.100D+01
 Coeff:     -0.492D+00 0.822D+00 0.670D+00
 Gap=     0.129 Goal=   None    Shift=    0.000
 Gap=     0.126 Goal=   None    Shift=    0.000
 RMSDP=8.40D-04 MaxDP=8.31D-03 DE=-3.90D-02 OVMax= 1.16D-02

 Cycle   4  Pass 1  IDiag  1:
 E= -23.1882089153289     Delta-E=       -0.000201065058 Rises=F Damp=F
 DIIS: error= 1.93D-03 at cycle   4 NSaved=   4.
 NSaved= 4 IEnMin= 4 EnMin= -23.1882089153289     IErMin= 4 ErrMin= 1.93D-03
 ErrMax= 1.93D-03  0.00D+00 EMaxC= 1.00D-01 BMatC= 9.84D-05 BMatP= 4.60D-04
 IDIUse=3 WtCom= 9.81D-01 WtEn= 1.93D-02
 Coeff-Com: -0.109D+00 0.127D+00-0.194D+00 0.118D+01
 Coeff-En:   0.000D+00 0.000D+00 0.000D+00 0.100D+01
 Coeff:     -0.107D+00 0.124D+00-0.190D+00 0.117D+01
 Gap=     0.125 Goal=   None    Shift=    0.000
 Gap=     0.122 Goal=   None    Shift=    0.000
 RMSDP=4.19D-04 MaxDP=4.39D-03 DE=-2.01D-04 OVMax= 6.24D-03

 Cycle   5  Pass 1  IDiag  1:
 E= -23.1882716418128     Delta-E=       -0.000062726484 Rises=F Damp=F
 DIIS: error= 3.11D-04 at cycle   5 NSaved=   5.
 NSaved= 5 IEnMin= 5 EnMin= -23.1882716418128     IErMin= 5 ErrMin= 3.11D-04
 ErrMax= 3.11D-04  0.00D+00 EMaxC= 1.00D-01 BMatC= 2.41D-06 BMatP= 9.84D-05
 IDIUse=3 WtCom= 9.97D-01 WtEn= 3.11D-03
 Coeff-Com:  0.189D-02-0.186D-02-0.108D-01-0.196D+00 0.121D+01
 Coeff-En:   0.000D+00 0.000D+00 0.000D+00 0.000D+00 0.100D+01
 Coeff:      0.189D-02-0.185D-02-0.107D-01-0.195D+00 0.121D+01
 Gap=     0.124 Goal=   None    Shift=    0.000
 Gap=     0.121 Goal=   None    Shift=    0.000
 RMSDP=8.36D-05 MaxDP=8.67D-04 DE=-6.27D-05 OVMax= 1.51D-03

 Cycle   6  Pass 1  IDiag  1:
 E= -23.1882735390605     Delta-E=       -0.000001897248 Rises=F Damp=F
 DIIS: error= 3.42D-05 at cycle   6 NSaved=   6.
 NSaved= 6 IEnMin= 6 EnMin= -23.1882735390605     IErMin= 6 ErrMin= 3.42D-05
 ErrMax= 3.42D-05  0.00D+00 EMaxC= 1.00D-01 BMatC= 2.30D-08 BMatP= 2.41D-06
 IDIUse=1 WtCom= 1.00D+00 WtEn= 0.00D+00
 Coeff-Com: -0.242D-03 0.733D-03 0.284D-02 0.803D-02-0.198D+00 0.119D+01
 Coeff:     -0.242D-03 0.733D-03 0.284D-02 0.803D-02-0.198D+00 0.119D+01
 Gap=     0.124 Goal=   None    Shift=    0.000
 Gap=     0.121 Goal=   None    Shift=    0.000
 RMSDP=1.23D-05 MaxDP=1.45D-04 DE=-1.90D-06 OVMax= 2.06D-04

 Cycle   7  Pass 1  IDiag  1:
 E= -23.1882735691135     Delta-E=       -0.000000030053 Rises=F Damp=F
 DIIS: error= 5.69D-06 at cycle   7 NSaved=   7.
 NSaved= 7 IEnMin= 7 EnMin= -23.1882735691135     IErMin= 7 ErrMin= 5.69D-06
 ErrMax= 5.69D-06  0.00D+00 EMaxC= 1.00D-01 BMatC= 8.35D-10 BMatP= 2.30D-08
 IDIUse=1 WtCom= 1.00D+00 WtEn= 0.00D+00
 Coeff-Com:  0.322D-03-0.626D-03-0.795D-03 0.178D-02 0.473D-01-0.492D+00
 Coeff-Com:  0.144D+01
 Coeff:      0.322D-03-0.626D-03-0.795D-03 0.178D-02 0.473D-01-0.492D+00
 Coeff:      0.144D+01
 Gap=     0.124 Goal=   None    Shift=    0.000
 Gap=     0.121 Goal=   None    Shift=    0.000
 RMSDP=3.56D-06 MaxDP=2.82D-05 DE=-3.01D-08 OVMax= 7.35D-05

 Cycle   8  Pass 1  IDiag  1:
 E= -23.1882735713149     Delta-E=       -0.000000002201 Rises=F Damp=F
 DIIS: error= 2.59D-06 at cycle   8 NSaved=   8.
 NSaved= 8 IEnMin= 8 EnMin= -23.1882735713149     IErMin= 8 ErrMin= 2.59D-06
 ErrMax= 2.59D-06  0.00D+00 EMaxC= 1.00D-01 BMatC= 9.22D-11 BMatP= 8.35D-10
 IDIUse=1 WtCom= 1.00D+00 WtEn= 0.00D+00
 Coeff-Com: -0.751D-05 0.135D-04 0.839D-04 0.155D-03-0.138D-02 0.449D-01
 Coeff-Com: -0.393D+00 0.135D+01
 Coeff:     -0.751D-05 0.135D-04 0.839D-04 0.155D-03-0.138D-02 0.449D-01
 Coeff:     -0.393D+00 0.135D+01
 Gap=     0.124 Goal=   None    Shift=    0.000
 Gap=     0.121 Goal=   None    Shift=    0.000
 RMSDP=1.06D-06 MaxDP=1.40D-05 DE=-2.20D-09 OVMax= 2.20D-05

 Cycle   9  Pass 1  IDiag  1:
 E= -23.1882735714770     Delta-E=       -0.000000000162 Rises=F Damp=F
 DIIS: error= 3.90D-07 at cycle   9 NSaved=   9.
 NSaved= 9 IEnMin= 9 EnMin= -23.1882735714770     IErMin= 9 ErrMin= 3.90D-07
 ErrMax= 3.90D-07  0.00D+00 EMaxC= 1.00D-01 BMatC= 2.76D-12 BMatP= 9.22D-11
 IDIUse=1 WtCom= 1.00D+00 WtEn= 0.00D+00
 Coeff-Com: -0.350D-04 0.558D-04 0.154D-04-0.841D-04-0.174D-02 0.158D-01
 Coeff-Com: -0.157D-01-0.165D+00 0.117D+01
 Coeff:     -0.350D-04 0.558D-04 0.154D-04-0.841D-04-0.174D-02 0.158D-01
 Coeff:     -0.157D-01-0.165D+00 0.117D+01
 Gap=     0.124 Goal=   None    Shift=    0.000
 Gap=     0.121 Goal=   None    Shift=    0.000
 RMSDP=1.56D-07 MaxDP=1.60D-06 DE=-1.62D-10 OVMax= 3.29D-06

 Cycle  10  Pass 1  IDiag  1:
 E= -23.1882735714820     Delta-E=       -0.000000000005 Rises=F Damp=F
 DIIS: error= 1.74D-07 at cycle  10 NSaved=  10.
 NSaved=10 IEnMin=10 EnMin= -23.1882735714820     IErMin=10 ErrMin= 1.74D-07
 ErrMax= 1.74D-07  0.00D+00 EMaxC= 1.00D-01 BMatC= 5.31D-13 BMatP= 2.76D-12
 IDIUse=1 WtCom= 1.00D+00 WtEn= 0.00D+00
 Coeff-Com: -0.333D-05 0.422D-05-0.132D-04-0.771D-04 0.106D-02-0.920D-02
 Coeff-Com:  0.356D-01-0.604D-01-0.313D+00 0.135D+01
 Coeff:     -0.333D-05 0.422D-05-0.132D-04-0.771D-04 0.106D-02-0.920D-02
 Coeff:      0.356D-01-0.604D-01-0.313D+00 0.135D+01
 Gap=     0.124 Goal=   None    Shift=    0.000
 Gap=     0.121 Goal=   None    Shift=    0.000
 RMSDP=6.32D-08 MaxDP=7.54D-07 DE=-5.03D-12 OVMax= 1.19D-06

 Cycle  11  Pass 1  IDiag  1:
 E= -23.1882735714828     Delta-E=       -0.000000000001 Rises=F Damp=F
 DIIS: error= 2.52D-08 at cycle  11 NSaved=  11.
 NSaved=11 IEnMin=11 EnMin= -23.1882735714828     IErMin=11 ErrMin= 2.52D-08
 ErrMax= 2.52D-08  0.00D+00 EMaxC= 1.00D-01 BMatC= 1.48D-14 BMatP= 5.31D-13
 IDIUse=1 WtCom= 1.00D+00 WtEn= 0.00D+00
 Coeff-Com:  0.936D-06-0.150D-05 0.643D-06 0.183D-04-0.157D-03 0.138D-02
 Coeff-Com: -0.786D-02 0.231D-01 0.205D-01-0.311D+00 0.127D+01
 Coeff:      0.936D-06-0.150D-05 0.643D-06 0.183D-04-0.157D-03 0.138D-02
 Coeff:     -0.786D-02 0.231D-01 0.205D-01-0.311D+00 0.127D+01
 Gap=     0.124 Goal=   None    Shift=    0.000
 Gap=     0.121 Goal=   None    Shift=    0.000
 RMSDP=1.18D-08 MaxDP=1.19D-07 DE=-7.82D-13 OVMax= 2.61D-07

 Cycle  12  Pass 1  IDiag  1:
 E= -23.1882735714828     Delta-E=        0.000000000000 Rises=F Damp=F
 DIIS: error= 4.84D-09 at cycle  12 NSaved=  12.
 NSaved=12 IEnMin=12 EnMin= -23.1882735714828     IErMin=12 ErrMin= 4.84D-09
 ErrMax= 4.84D-09  0.00D+00 EMaxC= 1.00D-01 BMatC= 6.71D-16 BMatP= 1.48D-14
 IDIUse=1 WtCom= 1.00D+00 WtEn= 0.00D+00
 Coeff-Com:  0.318D-06-0.434D-06-0.169D-07-0.236D-05 0.182D-04-0.169D-03
 Coeff-Com:  0.144D-02-0.575D-02 0.455D-02 0.529D-01-0.376D+00 0.132D+01
 Coeff:      0.318D-06-0.434D-06-0.169D-07-0.236D-05 0.182D-04-0.169D-03
 Coeff:      0.144D-02-0.575D-02 0.455D-02 0.529D-01-0.376D+00 0.132D+01
 Gap=     0.124 Goal=   None    Shift=    0.000
 Gap=     0.121 Goal=   None    Shift=    0.000
 RMSDP=2.03D-09 MaxDP=2.02D-08 DE=-1.78D-14 OVMax= 4.62D-08

 SCF Done:  E(UB3LYP) =  -23.1882735715     A.U. after   12 cycles
            NFock= 12  Conv=0.20D-08     -V/T= 2.0052
 <Sx>= 0.0000 <Sy>= 0.0000 <Sz>= 0.5000 <S**2>= 0.7506 S= 0.5003
 <L.S>= 0.000000000000E+00
 KE= 2.306891684633D+01 PE=-6.325259525950D+01 EE= 1.181836273051D+01
 Annihilation of the first spin contaminant:
 S**2 before annihilation     0.7506,   after     0.7500
 Leave Link  502 at Sat Mar 28 20:12:36 2026, MaxMem=    33554432 cpu:         1.0
 (Enter C:\G09W\l601.exe)
 Copying SCF densities to generalized density rwf, IOpCl= 1 IROHF=0.

 **********************************************************************

            Population analysis using the SCF density.

 **********************************************************************

 Orbital symmetries:
 Alpha Orbitals:
       Occupied  (A') (A') (A') (A') (A')
       Virtual   (A') (A") (A') (A") (A') (A') (A') (A") (A') (A')
                 (A') (A") (A') (A') (A') (A') (A')
 Beta  Orbitals:
       Occupied  (A') (A') (A') (A')
       Virtual   (A') (A') (A") (A') (A") (A') (A') (A') (A") (A')
                 (A') (A') (A") (A') (A') (A') (A') (A')
 The electronic state is 2-A'.
 Alpha  occ. eigenvalues --   -4.03994  -1.97561  -0.37450  -0.20881  -0.19615
 Alpha virt. eigenvalues --   -0.07209  -0.05891  -0.03337  -0.00204   0.01230
 Alpha virt. eigenvalues --    0.06676   0.11537   0.12262   0.12335   0.15220
 Alpha virt. eigenvalues --    0.25189   0.28596   0.29695   0.31357   0.47396
 Alpha virt. eigenvalues --    1.17470   1.19395
  Beta  occ. eigenvalues --   -4.03187  -1.97562  -0.36160  -0.19612
  Beta virt. eigenvalues --   -0.07517  -0.05503  -0.03877  -0.02698  -0.00095
  Beta virt. eigenvalues --    0.01758   0.06770   0.11496   0.12234   0.12400
  Beta virt. eigenvalues --    0.16616   0.25231   0.29595   0.31283   0.35489
  Beta virt. eigenvalues --    0.49430   1.17506   1.21010
          Condensed to atoms (all electrons):
               1          2          3          4
     1  Li   2.464814   0.378623   0.008964  -0.000203
     2  H    0.378623   0.780866  -0.000060  -0.000010
     3  Be   0.008964  -0.000060   3.495768   0.406533
     4  H   -0.000203  -0.000010   0.406533   0.670859
          Atomic-Atomic Spin Densities.
               1          2          3          4
     1  Li   0.000662  -0.000019   0.007616  -0.001013
     2  H   -0.000019   0.000388   0.000021   0.000000
     3  Be   0.007616   0.000021   0.919851  -0.010609
     4  H   -0.001013   0.000000  -0.010609   0.087106
 Mulliken charges and spin densities:
               1          2
     1  Li   0.147802   0.007246
     2  H   -0.159418   0.000391
     3  Be   0.088795   0.916878
     4  H   -0.077178   0.075485
 Sum of Mulliken charges =   0.00000   1.00000
 Mulliken charges and spin densities with hydrogens summed into heavy atoms:
               1          2
     1  Li  -0.011616   0.007637
     3  Be   0.011616   0.992363
 Electronic spatial extent (au):  <R**2>=            205.4304
 Charge=              0.0000 electrons
 Dipole moment (field-independent basis, Debye):
    X=              4.9077    Y=             -2.3431    Z=              0.0000  Tot=              5.4383
 Quadrupole moment (field-independent basis, Debye-Ang):
   XX=            -17.3200   YY=            -21.7157   ZZ=            -12.4178
   XY=             14.4469   XZ=              0.0000   YZ=              0.0000
 Traceless Quadrupole moment (field-independent basis, Debye-Ang):
   XX=             -0.1689   YY=             -4.5645   ZZ=              4.7334
   XY=             14.4469   XZ=              0.0000   YZ=              0.0000
 Octapole moment (field-independent basis, Debye-Ang**2):
  XXX=              6.0944  YYY=            -46.2387  ZZZ=              0.0000  XYY=             30.7538
  XXY=              0.1958  XXZ=              0.0000  XZZ=              2.2647  YZZ=             -2.5729
  YYZ=              0.0000  XYZ=              0.0000
 Hexadecapole moment (field-independent basis, Debye-Ang**3):
 XXXX=            -67.2638 YYYY=           -573.4681 ZZZZ=            -29.8575 XXXY=             53.6353
 XXXZ=              0.0000 YYYX=            147.0689 YYYZ=              0.0000 ZZZX=              0.0000
 ZZZY=              0.0000 XXYY=           -113.0207 XXZZ=            -15.8065 YYZZ=            -79.3224
 XXYZ=              0.0000 YYXZ=              0.0000 ZZXY=             15.0717
 N-N= 5.177042111169D+00 E-N=-6.325259526272D+01  KE= 2.306891684633D+01
 Symmetry A'   KE= 2.306891684633D+01
 Symmetry A"   KE= 0.000000000000D+00
                          Isotropic Fermi Contact Couplings
        Atom                 a.u.       MegaHertz       Gauss      10(-4) cm-1
     1  Li(7)             -0.00011      -0.18709      -0.06676      -0.06241
     2  H(1)               0.00012       0.52191       0.18623       0.17409
     3  Be(9)              0.21278    -133.71261     -47.71198     -44.60173
     4  H(1)               0.03499     156.38573      55.80232      52.16467
 --------------------------------------------------------
       Center         ----  Spin Dipole Couplings  ----
                      3XX-RR        3YY-RR        3ZZ-RR
 --------------------------------------------------------
     1   Atom       -0.001297      0.002823     -0.001526
     2   Atom       -0.000472      0.001351     -0.000878
     3   Atom        0.101425     -0.040799     -0.060625
     4   Atom        0.020826     -0.007942     -0.012885
 --------------------------------------------------------
                        XY            XZ            YZ
 --------------------------------------------------------
     1   Atom       -0.000712      0.000000      0.000000
     2   Atom       -0.000846      0.000000      0.000000
     3   Atom       -0.056284      0.000000      0.000000
     4   Atom       -0.012798      0.000000      0.000000
 --------------------------------------------------------


 ---------------------------------------------------------------------------------
              Anisotropic Spin Dipole Couplings in Principal Axis System
 ---------------------------------------------------------------------------------

       Atom             a.u.   MegaHertz   Gauss  10(-4) cm-1        Axes

              Baa    -0.0015    -0.316    -0.113    -0.106  0.0000  0.0000  1.0000
     1 Li(7)  Bbb    -0.0014    -0.294    -0.105    -0.098  0.9862  0.1657  0.0000
              Bcc     0.0029     0.610     0.218     0.204 -0.1657  0.9862  0.0000
 
              Baa    -0.0009    -0.469    -0.167    -0.156  0.0000  0.0000  1.0000
     2 H(1)   Bbb    -0.0008    -0.429    -0.153    -0.143  0.9309  0.3654  0.0000
              Bcc     0.0017     0.898     0.320     0.299 -0.3654  0.9309  0.0000
 
              Baa    -0.0606     4.547     1.623     1.517  0.0000  0.0000  1.0000
     3 Be(9)  Bbb    -0.0604     4.529     1.616     1.511  0.3285  0.9445  0.0000
              Bcc     0.1210    -9.076    -3.239    -3.028  0.9445 -0.3285  0.0000
 
              Baa    -0.0129    -6.875    -2.453    -2.293  0.0000  0.0000  1.0000
     4 H(1)   Bbb    -0.0128    -6.835    -2.439    -2.280  0.3556  0.9346  0.0000
              Bcc     0.0257    13.710     4.892     4.573  0.9346 -0.3556  0.0000
 

 ---------------------------------------------------------------------------------

 No NMR shielding tensors so no spin-rotation constants.
 Leave Link  601 at Sat Mar 28 20:12:36 2026, MaxMem=    33554432 cpu:         0.0
 (Enter C:\G09W\l9999.exe)
 1|1|UNPC-INANI_LAP|SP|UB3LYP|3-21G|Be1H2Li1(2)|EMMAN|28-Mar-2026|0||#p
  b3lyp/3-21g||Title Card Required - Distancia +3.40A - Paso 17||0,2|Li
 ,0,4.64474019,1.33044279,0.|H,0,3.11474019,1.33044279,0.|Be,0,6.265794
 55,-2.7499115,0.|H,0,5.07579455,-2.7499115,0.||Version=IA32W-G09RevD.0
 1|State=2-A'|HF=-23.1882736|S2=0.750578|S2-1=0.|S2A=0.75|RMSD=2.032e-0
 09|Dipole=2.1347718,-0.1438282,0.|Quadrupole=-7.9420253,4.4228607,3.51
 91646,8.9339217,0.,0.|PG=CS [SG(Be1H2Li1)]||@


 MAN IS A SINGULAR CREATURE.  HE HAS A SET OF GIFTS
 WHICH MAKE HIM UNIQUE AMONG THE ANIMALS: SO THAT, 
 UNLIKE THEM, HE IS NOT A FIGURE IN THE LANDSCAPE --
 HE IS A SHAPER OF THE LANDSCAPE.

                       -- JACOB BRONOWSKI
 Job cpu time:       0 days  0 hours  0 minutes  1.0 seconds.
 File lengths (MBytes):  RWF=      5 Int=      0 D2E=      0 Chk=      1 Scr=      1
 Normal termination of Gaussian 09 at Sat Mar 28 20:12:36 2026.
