 Entering Link 1 = C:\G09W\l1.exe PID=      9788.
  
 Copyright (c) 1988,1990,1992,1993,1995,1998,2003,2009,2013,
            Gaussian, Inc.  All Rights Reserved.
  
 This is part of the Gaussian(R) 09 program.  It is based on
 the Gaussian(R) 03 system (copyright 2003, Gaussian, Inc.),
 the Gaussian(R) 98 system (copyright 1998, Gaussian, Inc.),
 the Gaussian(R) 94 system (copyright 1995, Gaussian, Inc.),
 the Gaussian 92(TM) system (copyright 1992, Gaussian, Inc.),
 the Gaussian 90(TM) system (copyright 1990, Gaussian, Inc.),
 the Gaussian 88(TM) system (copyright 1988, Gaussian, Inc.),
 the Gaussian 86(TM) system (copyright 1986, Carnegie Mellon
 University), and the Gaussian 82(TM) system (copyright 1983,
 Carnegie Mellon University). Gaussian is a federally registered
 trademark of Gaussian, Inc.
  
 This software contains proprietary and confidential information,
 including trade secrets, belonging to Gaussian, Inc.
  
 This software is provided under written license and may be
 used, copied, transmitted, or stored only in accord with that
 written license.
  
 The following legend is applicable only to US Government
 contracts under FAR:
  
                    RESTRICTED RIGHTS LEGEND
  
 Use, reproduction and disclosure by the US Government is
 subject to restrictions as set forth in subparagraphs (a)
 and (c) of the Commercial Computer Software - Restricted
 Rights clause in FAR 52.227-19.
  
 Gaussian, Inc.
 340 Quinnipiac St., Bldg. 40, Wallingford CT 06492
  
  
 ---------------------------------------------------------------
 Warning -- This program may not be used in any manner that
 competes with the business of Gaussian, Inc. or will provide
 assistance to any competitor of Gaussian, Inc.  The licensee
 of this program is prohibited from giving any competitor of
 Gaussian, Inc. access to this program.  By using this program,
 the user acknowledges that Gaussian, Inc. is engaged in the
 business of creating and licensing software in the field of
 computational chemistry and represents and warrants to the
 licensee that it is not a competitor of Gaussian, Inc. and that
 it will not use this program in any manner prohibited above.
 ---------------------------------------------------------------
  

 Cite this work as:
 Gaussian 09, Revision D.01,
 M. J. Frisch, G. W. Trucks, H. B. Schlegel, G. E. Scuseria, 
 M. A. Robb, J. R. Cheeseman, G. Scalmani, V. Barone, B. Mennucci, 
 G. A. Petersson, H. Nakatsuji, M. Caricato, X. Li, H. P. Hratchian, 
 A. F. Izmaylov, J. Bloino, G. Zheng, J. L. Sonnenberg, M. Hada, 
 M. Ehara, K. Toyota, R. Fukuda, J. Hasegawa, M. Ishida, T. Nakajima, 
 Y. Honda, O. Kitao, H. Nakai, T. Vreven, J. A. Montgomery, Jr., 
 J. E. Peralta, F. Ogliaro, M. Bearpark, J. J. Heyd, E. Brothers, 
 K. N. Kudin, V. N. Staroverov, T. Keith, R. Kobayashi, J. Normand, 
 K. Raghavachari, A. Rendell, J. C. Burant, S. S. Iyengar, J. Tomasi, 
 M. Cossi, N. Rega, J. M. Millam, M. Klene, J. E. Knox, J. B. Cross, 
 V. Bakken, C. Adamo, J. Jaramillo, R. Gomperts, R. E. Stratmann, 
 O. Yazyev, A. J. Austin, R. Cammi, C. Pomelli, J. W. Ochterski, 
 R. L. Martin, K. Morokuma, V. G. Zakrzewski, G. A. Voth, 
 P. Salvador, J. J. Dannenberg, S. Dapprich, A. D. Daniels, 
 O. Farkas, J. B. Foresman, J. V. Ortiz, J. Cioslowski, 
 and D. J. Fox, Gaussian, Inc., Wallingford CT, 2013.
 
 ******************************************
 Gaussian 09:  IA32W-G09RevD.01 24-Apr-2013
                28-Mar-2026 
 ******************************************
 %chk=C:\Users\emman\Escritorio\quimica-enlaces\molecula\bn.chk
 --------------
 #p b3lyp/3-21g
 --------------
 1/38=1/1;
 2/12=2,17=6,18=5,40=1/2;
 3/5=5,11=2,16=1,25=1,30=1,74=-5/1,2,3;
 4//1;
 5/5=2,38=5/2;
 6/7=2,8=2,9=2,10=2,28=1/1;
 99/5=1,9=1/99;
 Leave Link    1 at Sat Mar 28 20:12:36 2026, MaxMem=           0 cpu:         0.0
 (Enter C:\G09W\l101.exe)
 ------------------------------------------------
 Title Card Required - Distancia +3.60A - Paso 18
 ------------------------------------------------
 Symbolic Z-matrix:
 Charge =  0 Multiplicity = 2
 Li                    4.64474   1.33044   0. 
 H                     3.11474   1.33044   0. 
 Be                    6.34618  -2.93305   0. 
 H                     5.15618  -2.93305   0. 
 
 NAtoms=      4 NQM=        4 NQMF=       0 NMMI=      0 NMMIF=      0
                NMic=       0 NMicF=      0.
                    Isotopes and Nuclear Properties:
 (Nuclear quadrupole moments (NQMom) in fm**2, nuclear magnetic moments (NMagM)
  in nuclear magnetons)

  Atom         1           2           3           4
 IAtWgt=           7           1           9           1
 AtmWgt=   7.0160045   1.0078250   9.0121825   1.0078250
 NucSpn=           3           1           3           1
 AtZEff=   0.0000000   0.0000000   0.0000000   0.0000000
 NQMom=   -4.0100000   0.0000000   5.2880000   0.0000000
 NMagM=    3.2564240   2.7928460  -1.1779000   2.7928460
 AtZNuc=   3.0000000   1.0000000   4.0000000   1.0000000
 Leave Link  101 at Sat Mar 28 20:12:36 2026, MaxMem=    33554432 cpu:         0.0
 (Enter C:\G09W\l202.exe)
                          Input orientation:                          
 ---------------------------------------------------------------------
 Center     Atomic      Atomic             Coordinates (Angstroms)
 Number     Number       Type             X           Y           Z
 ---------------------------------------------------------------------
      1          3           0        4.644740    1.330443    0.000000
      2          1           0        3.114740    1.330443    0.000000
      3          4           0        6.346180   -2.933046    0.000000
      4          1           0        5.156181   -2.933046    0.000000
 ---------------------------------------------------------------------
                    Distance matrix (angstroms):
                    1          2          3          4
     1  Li   0.000000
     2  H    1.530000   0.000000
     3  Be   4.590450   5.349723   0.000000
     4  H    4.294055   4.727030   1.190000   0.000000
 Stoichiometry    BeH2Li(2)
 Framework group  CS[SG(BeH2Li)]
 Deg. of freedom     5
 Full point group                 CS      NOp   2
 Largest Abelian subgroup         CS      NOp   2
 Largest concise Abelian subgroup C1      NOp   1
                         Standard orientation:                         
 ---------------------------------------------------------------------
 Center     Atomic      Atomic             Coordinates (Angstroms)
 Number     Number       Type             X           Y           Z
 ---------------------------------------------------------------------
      1          3           0        0.280696    2.438232    0.000000
      2          1           0       -1.140327    3.005323    0.000000
      3          4           0        0.280696   -2.152218    0.000000
      4          1           0       -0.824544   -1.711147    0.000000
 ---------------------------------------------------------------------
 Rotational constants (GHZ):    178.1086760      5.2905933      5.1379734
 Leave Link  202 at Sat Mar 28 20:12:36 2026, MaxMem=    33554432 cpu:         0.0
 (Enter C:\G09W\l301.exe)
 Standard basis: 3-21G (6D, 7F)
 Ernie: Thresh=  0.10000D-02 Tol=  0.10000D-05 Strict=F.
 There are    18 symmetry adapted cartesian basis functions of A'  symmetry.
 There are     4 symmetry adapted cartesian basis functions of A"  symmetry.
 There are    18 symmetry adapted basis functions of A'  symmetry.
 There are     4 symmetry adapted basis functions of A"  symmetry.
    22 basis functions,    36 primitive gaussians,    22 cartesian basis functions
     5 alpha electrons        4 beta electrons
       nuclear repulsion energy         5.0770020898 Hartrees.
 IExCor=  402 DFT=T Ex+Corr=B3LYP ExCW=0 ScaHFX=  0.200000
 ScaDFX=  0.800000  0.720000  1.000000  0.810000 ScalE2=  1.000000  1.000000
 IRadAn=      0 IRanWt=     -1 IRanGd=            0 ICorTp=0 IEmpDi=  4
 NAtoms=    4 NActive=    4 NUniq=    4 SFac= 1.00D+00 NAtFMM=   60 NAOKFM=F Big=F
 Integral buffers will be    262144 words long.
 Raffenetti 2 integral format.
 Two-electron integral symmetry is turned on.
 Leave Link  301 at Sat Mar 28 20:12:36 2026, MaxMem=    33554432 cpu:         0.0
 (Enter C:\G09W\l302.exe)
 NPDir=0 NMtPBC=     1 NCelOv=     1 NCel=       1 NClECP=     1 NCelD=      1
         NCelK=      1 NCelE2=     1 NClLst=     1 CellRange=     0.0.
 One-electron integrals computed using PRISM.
 NBasis=    22 RedAO= T EigKep=  8.80D-02  NBF=    18     4
 NBsUse=    22 1.00D-06 EigRej= -1.00D+00 NBFU=    18     4
 Precomputing XC quadrature grid using
 IXCGrd= 4 IRadAn=           0 IRanWt=          -1 IRanGd=           0 AccXCQ= 0.00D+00.
 Generated NRdTot=       0 NPtTot=           0 NUsed=           0 NTot=          16
 NSgBfM=    22    22    22    22    22 MxSgAt=     4 MxSgA2=     4.
 Leave Link  302 at Sat Mar 28 20:12:36 2026, MaxMem=    33554432 cpu:         0.0
 (Enter C:\G09W\l303.exe)
 DipDrv:  MaxL=1.
 Leave Link  303 at Sat Mar 28 20:12:36 2026, MaxMem=    33554432 cpu:         0.0
 (Enter C:\G09W\l401.exe)
 ExpMin= 2.86D-02 ExpMax= 7.19D+01 ExpMxC= 7.19D+01 IAcc=3 IRadAn=         5 AccDes= 0.00D+00
 Harris functional with IExCor=  402 and IRadAn=       5 diagonalized for initial guess.
 HarFok:  IExCor=  402 AccDes= 0.00D+00 IRadAn=         5 IDoV= 1 UseB2=F ITyADJ=14
 ICtDFT=  3500011 ScaDFX=  1.000000  1.000000  1.000000  1.000000
 FoFCou: FMM=F IPFlag=           0 FMFlag=      100000 FMFlg1=           0
         NFxFlg=           0 DoJE=T BraDBF=F KetDBF=T FulRan=T
         wScrn=  0.000000 ICntrl=     500 IOpCl=  0 I1Cent=   200000004 NGrid=           0
         NMat0=    1 NMatS0=      1 NMatT0=    0 NMatD0=    1 NMtDS0=    0 NMtDT0=    0
 Petite list used in FoFCou.
 Harris En= -23.2207548809204    
 JPrj=0 DoOrth=F DoCkMO=F.
 Initial guess orbital symmetries:
 Alpha Orbitals:
       Occupied  (A') (A') (A') (A') (A')
       Virtual   (A') (A") (A') (A") (A') (A') (A') (A") (A') (A')
                 (A') (A") (A') (A') (A') (A') (A')
 Beta  Orbitals:
       Occupied  (A') (A') (A') (A')
       Virtual   (A') (A') (A") (A') (A") (A') (A') (A') (A") (A')
                 (A') (A') (A") (A') (A') (A') (A') (A')
 The electronic state of the initial guess is 2-A'.
 Initial guess <Sx>= 0.0000 <Sy>= 0.0000 <Sz>= 0.5000 <S**2>= 0.7500 S= 0.5000
 Leave Link  401 at Sat Mar 28 20:12:36 2026, MaxMem=    33554432 cpu:         0.0
 (Enter C:\G09W\l502.exe)
 UHF open shell SCF:
 Using DIIS extrapolation, IDIIS=  1040.
 Integral symmetry usage will be decided dynamically.
 Keep R1 and R2 ints in memory in symmetry-blocked form, NReq=914551.
 IVT=       20170 IEndB=       20170 NGot=    33554432 MDV=    33495625
 LenX=    33495625 LenY=    33494700
 Requested convergence on RMS density matrix=1.00D-08 within 128 cycles.
 Requested convergence on MAX density matrix=1.00D-06.
 Requested convergence on             energy=1.00D-06.
 No special actions if energy rises.
 FoFCou: FMM=F IPFlag=           0 FMFlag=           0 FMFlg1=           0
         NFxFlg=           0 DoJE=F BraDBF=F KetDBF=F FulRan=T
         wScrn=  0.000000 ICntrl=     600 IOpCl=  0 I1Cent=           0 NGrid=           0
         NMat0=    1 NMatS0=    253 NMatT0=    0 NMatD0=    1 NMtDS0=    0 NMtDT0=    0
 Petite list used in FoFCou.

 Cycle   1  Pass 1  IDiag  1:
 E= -23.1312718225531    
 DIIS: error= 4.74D-02 at cycle   1 NSaved=   1.
 NSaved= 1 IEnMin= 1 EnMin= -23.1312718225531     IErMin= 1 ErrMin= 4.74D-02
 ErrMax= 4.74D-02  0.00D+00 EMaxC= 1.00D-01 BMatC= 1.06D-01 BMatP= 1.06D-01
 IDIUse=3 WtCom= 5.26D-01 WtEn= 4.74D-01
 Coeff-Com:  0.100D+01
 Coeff-En:   0.100D+01
 Coeff:      0.100D+01
 Gap=     0.146 Goal=   None    Shift=    0.000
 Gap=     0.005 Goal=   None    Shift=    0.000
 GapD=    0.005 DampG=0.250 DampE=0.500 DampFc=0.2500 IDamp=-1.
 Damping current iteration by 2.50D-01
 RMSDP=2.12D-02 MaxDP=1.80D-01              OVMax= 3.84D-01

 Cycle   2  Pass 1  IDiag  1:
 E= -23.1493891603042     Delta-E=       -0.018117337751 Rises=F Damp=T
 DIIS: error= 2.73D-02 at cycle   2 NSaved=   2.
 NSaved= 2 IEnMin= 2 EnMin= -23.1493891603042     IErMin= 2 ErrMin= 2.73D-02
 ErrMax= 2.73D-02  0.00D+00 EMaxC= 1.00D-01 BMatC= 3.99D-02 BMatP= 1.06D-01
 IDIUse=3 WtCom= 7.27D-01 WtEn= 2.73D-01
 Coeff-Com: -0.153D+01 0.253D+01
 Coeff-En:   0.000D+00 0.100D+01
 Coeff:     -0.112D+01 0.212D+01
 Gap=     0.120 Goal=   None    Shift=    0.000
 Gap=     0.119 Goal=   None    Shift=    0.000
 RMSDP=9.35D-03 MaxDP=8.23D-02 DE=-1.81D-02 OVMax= 1.93D-01

 Cycle   3  Pass 1  IDiag  1:
 E= -23.1881496433839     Delta-E=       -0.038760483080 Rises=F Damp=F
 DIIS: error= 4.05D-03 at cycle   3 NSaved=   3.
 NSaved= 3 IEnMin= 3 EnMin= -23.1881496433839     IErMin= 3 ErrMin= 4.05D-03
 ErrMax= 4.05D-03  0.00D+00 EMaxC= 1.00D-01 BMatC= 3.93D-04 BMatP= 3.99D-02
 IDIUse=3 WtCom= 9.60D-01 WtEn= 4.05D-02
 Coeff-Com: -0.474D+00 0.799D+00 0.675D+00
 Coeff-En:   0.000D+00 0.000D+00 0.100D+01
 Coeff:     -0.455D+00 0.767D+00 0.688D+00
 Gap=     0.131 Goal=   None    Shift=    0.000
 Gap=     0.128 Goal=   None    Shift=    0.000
 RMSDP=8.34D-04 MaxDP=8.15D-03 DE=-3.88D-02 OVMax= 1.13D-02

 Cycle   4  Pass 1  IDiag  1:
 E= -23.1883252392963     Delta-E=       -0.000175595912 Rises=F Damp=F
 DIIS: error= 1.69D-03 at cycle   4 NSaved=   4.
 NSaved= 4 IEnMin= 4 EnMin= -23.1883252392963     IErMin= 4 ErrMin= 1.69D-03
 ErrMax= 1.69D-03  0.00D+00 EMaxC= 1.00D-01 BMatC= 7.54D-05 BMatP= 3.93D-04
 IDIUse=3 WtCom= 9.83D-01 WtEn= 1.69D-02
 Coeff-Com: -0.101D+00 0.116D+00-0.176D+00 0.116D+01
 Coeff-En:   0.000D+00 0.000D+00 0.000D+00 0.100D+01
 Coeff:     -0.991D-01 0.115D+00-0.173D+00 0.116D+01
 Gap=     0.127 Goal=   None    Shift=    0.000
 Gap=     0.124 Goal=   None    Shift=    0.000
 RMSDP=3.64D-04 MaxDP=3.72D-03 DE=-1.76D-04 OVMax= 5.32D-03

 Cycle   5  Pass 1  IDiag  1:
 E= -23.1883723679824     Delta-E=       -0.000047128686 Rises=F Damp=F
 DIIS: error= 2.64D-04 at cycle   5 NSaved=   5.
 NSaved= 5 IEnMin= 5 EnMin= -23.1883723679824     IErMin= 5 ErrMin= 2.64D-04
 ErrMax= 2.64D-04  0.00D+00 EMaxC= 1.00D-01 BMatC= 1.83D-06 BMatP= 7.54D-05
 IDIUse=3 WtCom= 9.97D-01 WtEn= 2.64D-03
 Coeff-Com:  0.176D-02-0.158D-02-0.104D-01-0.203D+00 0.121D+01
 Coeff-En:   0.000D+00 0.000D+00 0.000D+00 0.000D+00 0.100D+01
 Coeff:      0.176D-02-0.158D-02-0.104D-01-0.203D+00 0.121D+01
 Gap=     0.127 Goal=   None    Shift=    0.000
 Gap=     0.123 Goal=   None    Shift=    0.000
 RMSDP=7.30D-05 MaxDP=6.93D-04 DE=-4.71D-05 OVMax= 1.35D-03

 Cycle   6  Pass 1  IDiag  1:
 E= -23.1883738304389     Delta-E=       -0.000001462456 Rises=F Damp=F
 DIIS: error= 2.95D-05 at cycle   6 NSaved=   6.
 NSaved= 6 IEnMin= 6 EnMin= -23.1883738304389     IErMin= 6 ErrMin= 2.95D-05
 ErrMax= 2.95D-05  0.00D+00 EMaxC= 1.00D-01 BMatC= 1.96D-08 BMatP= 1.83D-06
 IDIUse=1 WtCom= 1.00D+00 WtEn= 0.00D+00
 Coeff-Com: -0.231D-03 0.751D-03 0.233D-02 0.180D-02-0.167D+00 0.116D+01
 Coeff:     -0.231D-03 0.751D-03 0.233D-02 0.180D-02-0.167D+00 0.116D+01
 Gap=     0.126 Goal=   None    Shift=    0.000
 Gap=     0.123 Goal=   None    Shift=    0.000
 RMSDP=1.11D-05 MaxDP=1.17D-04 DE=-1.46D-06 OVMax= 1.85D-04

 Cycle   7  Pass 1  IDiag  1:
 E= -23.1883738544368     Delta-E=       -0.000000023998 Rises=F Damp=F
 DIIS: error= 4.22D-06 at cycle   7 NSaved=   7.
 NSaved= 7 IEnMin= 7 EnMin= -23.1883738544368     IErMin= 7 ErrMin= 4.22D-06
 ErrMax= 4.22D-06  0.00D+00 EMaxC= 1.00D-01 BMatC= 5.25D-10 BMatP= 1.96D-08
 IDIUse=1 WtCom= 1.00D+00 WtEn= 0.00D+00
 Coeff-Com:  0.380D-03-0.686D-03-0.385D-03 0.347D-02 0.251D-01-0.379D+00
 Coeff-Com:  0.135D+01
 Coeff:      0.380D-03-0.686D-03-0.385D-03 0.347D-02 0.251D-01-0.379D+00
 Coeff:      0.135D+01
 Gap=     0.127 Goal=   None    Shift=    0.000
 Gap=     0.123 Goal=   None    Shift=    0.000
 RMSDP=2.74D-06 MaxDP=2.26D-05 DE=-2.40D-08 OVMax= 7.07D-05

 Cycle   8  Pass 1  IDiag  1:
 E= -23.1883738558122     Delta-E=       -0.000000001375 Rises=F Damp=F
 DIIS: error= 2.22D-06 at cycle   8 NSaved=   8.
 NSaved= 8 IEnMin= 8 EnMin= -23.1883738558122     IErMin= 8 ErrMin= 2.22D-06
 ErrMax= 2.22D-06  0.00D+00 EMaxC= 1.00D-01 BMatC= 7.48D-11 BMatP= 5.25D-10
 IDIUse=1 WtCom= 1.00D+00 WtEn= 0.00D+00
 Coeff-Com: -0.454D-05 0.102D-04 0.452D-04 0.842D-04-0.517D-03 0.419D-01
 Coeff-Com: -0.421D+00 0.138D+01
 Coeff:     -0.454D-05 0.102D-04 0.452D-04 0.842D-04-0.517D-03 0.419D-01
 Coeff:     -0.421D+00 0.138D+01
 Gap=     0.127 Goal=   None    Shift=    0.000
 Gap=     0.123 Goal=   None    Shift=    0.000
 RMSDP=8.83D-07 MaxDP=1.04D-05 DE=-1.38D-09 OVMax= 1.73D-05

 Cycle   9  Pass 1  IDiag  1:
 E= -23.1883738559310     Delta-E=       -0.000000000119 Rises=F Damp=F
 DIIS: error= 3.00D-07 at cycle   9 NSaved=   9.
 NSaved= 9 IEnMin= 9 EnMin= -23.1883738559310     IErMin= 9 ErrMin= 3.00D-07
 ErrMax= 3.00D-07  0.00D+00 EMaxC= 1.00D-01 BMatC= 1.61D-12 BMatP= 7.48D-11
 IDIUse=1 WtCom= 1.00D+00 WtEn= 0.00D+00
 Coeff-Com: -0.306D-04 0.485D-04 0.635D-05-0.142D-03-0.951D-03 0.119D-01
 Coeff-Com: -0.114D-01-0.149D+00 0.115D+01
 Coeff:     -0.306D-04 0.485D-04 0.635D-05-0.142D-03-0.951D-03 0.119D-01
 Coeff:     -0.114D-01-0.149D+00 0.115D+01
 Gap=     0.127 Goal=   None    Shift=    0.000
 Gap=     0.123 Goal=   None    Shift=    0.000
 RMSDP=1.17D-07 MaxDP=1.16D-06 DE=-1.19D-10 OVMax= 2.50D-06

 Cycle  10  Pass 1  IDiag  1:
 E= -23.1883738559338     Delta-E=       -0.000000000003 Rises=F Damp=F
 DIIS: error= 1.55D-07 at cycle  10 NSaved=  10.
 NSaved=10 IEnMin=10 EnMin= -23.1883738559338     IErMin=10 ErrMin= 1.55D-07
 ErrMax= 1.55D-07  0.00D+00 EMaxC= 1.00D-01 BMatC= 3.63D-13 BMatP= 1.61D-12
 IDIUse=1 WtCom= 1.00D+00 WtEn= 0.00D+00
 Coeff-Com: -0.259D-05 0.293D-05-0.678D-05-0.295D-04 0.643D-03-0.778D-02
 Coeff-Com:  0.376D-01-0.688D-01-0.354D+00 0.139D+01
 Coeff:     -0.259D-05 0.293D-05-0.678D-05-0.295D-04 0.643D-03-0.778D-02
 Coeff:      0.376D-01-0.688D-01-0.354D+00 0.139D+01
 Gap=     0.127 Goal=   None    Shift=    0.000
 Gap=     0.123 Goal=   None    Shift=    0.000
 RMSDP=5.38D-08 MaxDP=6.98D-07 DE=-2.83D-12 OVMax= 1.07D-06

 Cycle  11  Pass 1  IDiag  1:
 E= -23.1883738559343     Delta-E=       -0.000000000001 Rises=F Damp=F
 DIIS: error= 2.47D-08 at cycle  11 NSaved=  11.
 NSaved=11 IEnMin=11 EnMin= -23.1883738559343     IErMin=11 ErrMin= 2.47D-08
 ErrMax= 2.47D-08  0.00D+00 EMaxC= 1.00D-01 BMatC= 1.15D-14 BMatP= 3.63D-13
 IDIUse=1 WtCom= 1.00D+00 WtEn= 0.00D+00
 Coeff-Com:  0.909D-06-0.136D-05-0.269D-06 0.122D-04-0.109D-03 0.141D-02
 Coeff-Com: -0.102D-01 0.293D-01 0.304D-01-0.361D+00 0.131D+01
 Coeff:      0.909D-06-0.136D-05-0.269D-06 0.122D-04-0.109D-03 0.141D-02
 Coeff:     -0.102D-01 0.293D-01 0.304D-01-0.361D+00 0.131D+01
 Gap=     0.127 Goal=   None    Shift=    0.000
 Gap=     0.123 Goal=   None    Shift=    0.000
 RMSDP=1.08D-08 MaxDP=1.27D-07 DE=-5.19D-13 OVMax= 1.94D-07

 Cycle  12  Pass 1  IDiag  1:
 E= -23.1883738559344     Delta-E=        0.000000000000 Rises=F Damp=F
 DIIS: error= 4.99D-09 at cycle  12 NSaved=  12.
 NSaved=12 IEnMin=12 EnMin= -23.1883738559344     IErMin=12 ErrMin= 4.99D-09
 ErrMax= 4.99D-09  0.00D+00 EMaxC= 1.00D-01 BMatC= 5.95D-16 BMatP= 1.15D-14
 IDIUse=1 WtCom= 1.00D+00 WtEn= 0.00D+00
 Coeff-Com:  0.325D-06-0.461D-06 0.157D-06-0.252D-05 0.200D-04-0.285D-03
 Coeff-Com:  0.257D-02-0.863D-02 0.616D-03 0.818D-01-0.442D+00 0.137D+01
 Coeff:      0.325D-06-0.461D-06 0.157D-06-0.252D-05 0.200D-04-0.285D-03
 Coeff:      0.257D-02-0.863D-02 0.616D-03 0.818D-01-0.442D+00 0.137D+01
 Gap=     0.127 Goal=   None    Shift=    0.000
 Gap=     0.123 Goal=   None    Shift=    0.000
 RMSDP=1.89D-09 MaxDP=1.74D-08 DE=-8.53D-14 OVMax= 3.91D-08

 SCF Done:  E(UB3LYP) =  -23.1883738559     A.U. after   12 cycles
            NFock= 12  Conv=0.19D-08     -V/T= 2.0052
 <Sx>= 0.0000 <Sy>= 0.0000 <Sz>= 0.5000 <S**2>= 0.7506 S= 0.5003
 <L.S>= 0.000000000000E+00
 KE= 2.306897982382D+01 PE=-6.305730059633D+01 EE= 1.172294482678D+01
 Annihilation of the first spin contaminant:
 S**2 before annihilation     0.7506,   after     0.7500
 Leave Link  502 at Sat Mar 28 20:12:37 2026, MaxMem=    33554432 cpu:         1.0
 (Enter C:\G09W\l601.exe)
 Copying SCF densities to generalized density rwf, IOpCl= 1 IROHF=0.

 **********************************************************************

            Population analysis using the SCF density.

 **********************************************************************

 Orbital symmetries:
 Alpha Orbitals:
       Occupied  (A') (A') (A') (A') (A')
       Virtual   (A') (A") (A') (A") (A') (A') (A') (A") (A') (A')
                 (A') (A") (A') (A') (A') (A') (A')
 Beta  Orbitals:
       Occupied  (A') (A') (A') (A')
       Virtual   (A') (A') (A") (A') (A") (A') (A') (A') (A") (A')
                 (A') (A') (A") (A') (A') (A') (A') (A')
 The electronic state is 2-A'.
 Alpha  occ. eigenvalues --   -4.03878  -1.97577  -0.37356  -0.20756  -0.19633
 Alpha virt. eigenvalues --   -0.06982  -0.05768  -0.03450  -0.00274   0.00960
 Alpha virt. eigenvalues --    0.06675   0.11474   0.12237   0.12643   0.15067
 Alpha virt. eigenvalues --    0.25214   0.28609   0.29625   0.31196   0.46891
 Alpha virt. eigenvalues --    1.17295   1.19416
  Beta  occ. eigenvalues --   -4.03069  -1.97577  -0.36075  -0.19630
  Beta virt. eigenvalues --   -0.07294  -0.05384  -0.03725  -0.02783  -0.00184
  Beta virt. eigenvalues --    0.01438   0.06754   0.11466   0.12220   0.12681
  Beta virt. eigenvalues --    0.16492   0.25223   0.29613   0.31127   0.35469
  Beta virt. eigenvalues --    0.48930   1.17352   1.20999
          Condensed to atoms (all electrons):
               1          2          3          4
     1  Li   2.464701   0.378795   0.007372   0.000147
     2  H    0.378795   0.780544  -0.000063  -0.000004
     3  Be   0.007372  -0.000063   3.496845   0.406232
     4  H    0.000147  -0.000004   0.406232   0.672955
          Atomic-Atomic Spin Densities.
               1          2          3          4
     1  Li   0.000520  -0.000001   0.006139  -0.000844
     2  H   -0.000001   0.000347   0.000012   0.000000
     3  Be   0.006139   0.000012   0.923588  -0.010883
     4  H   -0.000844   0.000000  -0.010883   0.086701
 Mulliken charges and spin densities:
               1          2
     1  Li   0.148985   0.005815
     2  H   -0.159271   0.000358
     3  Be   0.089615   0.918855
     4  H   -0.079330   0.074973
 Sum of Mulliken charges =   0.00000   1.00000
 Mulliken charges and spin densities with hydrogens summed into heavy atoms:
               1          2
     1  Li  -0.010286   0.006172
     3  Be   0.010286   0.993828
 Electronic spatial extent (au):  <R**2>=            220.2829
 Charge=              0.0000 electrons
 Dipole moment (field-independent basis, Debye):
    X=              4.9299    Y=             -2.3077    Z=              0.0000  Tot=              5.4433
 Quadrupole moment (field-independent basis, Debye-Ang):
   XX=            -17.2970   YY=            -22.3139   ZZ=            -12.4109
   XY=             15.0282   XZ=              0.0000   YZ=              0.0000
 Traceless Quadrupole moment (field-independent basis, Debye-Ang):
   XX=              0.0436   YY=             -4.9733   ZZ=              4.9297
   XY=             15.0282   XZ=              0.0000   YZ=              0.0000
 Octapole moment (field-independent basis, Debye-Ang**2):
  XXX=              6.1854  YYY=            -49.5436  ZZZ=              0.0000  XYY=             33.4099
  XXY=              0.2809  XXZ=              0.0000  XZZ=              2.2890  YZZ=             -2.6120
  YYZ=              0.0000  XYZ=              0.0000
 Hexadecapole moment (field-independent basis, Debye-Ang**3):
 XXXX=            -67.0575 YYYY=           -629.4185 ZZZZ=            -29.8155 XXXY=             55.7123
 XXXZ=              0.0000 YYYX=            162.2476 YYYZ=              0.0000 ZZZX=              0.0000
 ZZZY=              0.0000 XXYY=           -121.3896 XXZZ=            -15.7664 YYZZ=            -85.4180
 XXYZ=              0.0000 YYXZ=              0.0000 ZZXY=             15.6614
 N-N= 5.077002089800D+00 E-N=-6.305730059986D+01  KE= 2.306897982382D+01
 Symmetry A'   KE= 2.306897982382D+01
 Symmetry A"   KE= 0.000000000000D+00
                          Isotropic Fermi Contact Couplings
        Atom                 a.u.       MegaHertz       Gauss      10(-4) cm-1
     1  Li(7)             -0.00010      -0.17047      -0.06083      -0.05686
     2  H(1)               0.00011       0.48334       0.17247       0.16123
     3  Be(9)              0.21393    -134.43644     -47.97026     -44.84317
     4  H(1)               0.03478     155.44068      55.46510      51.84943
 --------------------------------------------------------
       Center         ----  Spin Dipole Couplings  ----
                      3XX-RR        3YY-RR        3ZZ-RR
 --------------------------------------------------------
     1   Atom       -0.001155      0.002492     -0.001336
     2   Atom       -0.000452      0.001242     -0.000790
     3   Atom        0.100463     -0.039955     -0.060508
     4   Atom        0.020753     -0.007873     -0.012880
 --------------------------------------------------------
                        XY            XZ            YZ
 --------------------------------------------------------
     1   Atom       -0.000589      0.000000      0.000000
     2   Atom       -0.000743      0.000000      0.000000
     3   Atom       -0.057213      0.000000      0.000000
     4   Atom       -0.012898      0.000000      0.000000
 --------------------------------------------------------


 ---------------------------------------------------------------------------------
              Anisotropic Spin Dipole Couplings in Principal Axis System
 ---------------------------------------------------------------------------------

       Atom             a.u.   MegaHertz   Gauss  10(-4) cm-1        Axes

              Baa    -0.0013    -0.277    -0.099    -0.092  0.0000  0.0000  1.0000
     1 Li(7)  Bbb    -0.0012    -0.259    -0.092    -0.086  0.9878  0.1556  0.0000
              Bcc     0.0026     0.536     0.191     0.179 -0.1556  0.9878  0.0000
 
              Baa    -0.0008    -0.421    -0.150    -0.141  0.0000  0.0000  1.0000
     2 H(1)   Bbb    -0.0007    -0.390    -0.139    -0.130  0.9358  0.3525  0.0000
              Bcc     0.0015     0.812     0.290     0.271 -0.3525  0.9358  0.0000
 
              Baa    -0.0605     4.539     1.620     1.514  0.0000  0.0000  1.0000
     3 Be(9)  Bbb    -0.0603     4.524     1.614     1.509  0.3353  0.9421  0.0000
              Bcc     0.1208    -9.063    -3.234    -3.023  0.9421 -0.3353  0.0000
 
              Baa    -0.0129    -6.872    -2.452    -2.292  0.0000  0.0000  1.0000
     4 H(1)   Bbb    -0.0128    -6.844    -2.442    -2.283  0.3586  0.9335  0.0000
              Bcc     0.0257    13.716     4.894     4.575  0.9335 -0.3586  0.0000
 

 ---------------------------------------------------------------------------------

 No NMR shielding tensors so no spin-rotation constants.
 Leave Link  601 at Sat Mar 28 20:12:37 2026, MaxMem=    33554432 cpu:         0.0
 (Enter C:\G09W\l9999.exe)
 1|1|UNPC-INANI_LAP|SP|UB3LYP|3-21G|Be1H2Li1(2)|EMMAN|28-Mar-2026|0||#p
  b3lyp/3-21g||Title Card Required - Distancia +3.60A - Paso 18||0,2|Li
 ,0,4.64474019,1.33044279,0.|H,0,3.11474019,1.33044279,0.|Be,0,6.346180
 5,-2.9330456,0.|H,0,5.1561805,-2.9330456,0.||Version=IA32W-G09RevD.01|
 State=2-A'|HF=-23.1883739|S2=0.750564|S2-1=0.|S2A=0.75|RMSD=1.887e-009
 |Dipole=2.1379582,-0.1243536,0.|Quadrupole=-8.1726229,4.5075181,3.6651
 048,9.3871852,0.,0.|PG=CS [SG(Be1H2Li1)]||@


 MAN IS A SINGULAR CREATURE.  HE HAS A SET OF GIFTS
 WHICH MAKE HIM UNIQUE AMONG THE ANIMALS: SO THAT, 
 UNLIKE THEM, HE IS NOT A FIGURE IN THE LANDSCAPE --
 HE IS A SHAPER OF THE LANDSCAPE.

                       -- JACOB BRONOWSKI
 Job cpu time:       0 days  0 hours  0 minutes  1.0 seconds.
 File lengths (MBytes):  RWF=      5 Int=      0 D2E=      0 Chk=      1 Scr=      1
 Normal termination of Gaussian 09 at Sat Mar 28 20:12:37 2026.
