 Entering Link 1 = C:\G09W\l1.exe PID=     13156.
  
 Copyright (c) 1988,1990,1992,1993,1995,1998,2003,2009,2013,
            Gaussian, Inc.  All Rights Reserved.
  
 This is part of the Gaussian(R) 09 program.  It is based on
 the Gaussian(R) 03 system (copyright 2003, Gaussian, Inc.),
 the Gaussian(R) 98 system (copyright 1998, Gaussian, Inc.),
 the Gaussian(R) 94 system (copyright 1995, Gaussian, Inc.),
 the Gaussian 92(TM) system (copyright 1992, Gaussian, Inc.),
 the Gaussian 90(TM) system (copyright 1990, Gaussian, Inc.),
 the Gaussian 88(TM) system (copyright 1988, Gaussian, Inc.),
 the Gaussian 86(TM) system (copyright 1986, Carnegie Mellon
 University), and the Gaussian 82(TM) system (copyright 1983,
 Carnegie Mellon University). Gaussian is a federally registered
 trademark of Gaussian, Inc.
  
 This software contains proprietary and confidential information,
 including trade secrets, belonging to Gaussian, Inc.
  
 This software is provided under written license and may be
 used, copied, transmitted, or stored only in accord with that
 written license.
  
 The following legend is applicable only to US Government
 contracts under FAR:
  
                    RESTRICTED RIGHTS LEGEND
  
 Use, reproduction and disclosure by the US Government is
 subject to restrictions as set forth in subparagraphs (a)
 and (c) of the Commercial Computer Software - Restricted
 Rights clause in FAR 52.227-19.
  
 Gaussian, Inc.
 340 Quinnipiac St., Bldg. 40, Wallingford CT 06492
  
  
 ---------------------------------------------------------------
 Warning -- This program may not be used in any manner that
 competes with the business of Gaussian, Inc. or will provide
 assistance to any competitor of Gaussian, Inc.  The licensee
 of this program is prohibited from giving any competitor of
 Gaussian, Inc. access to this program.  By using this program,
 the user acknowledges that Gaussian, Inc. is engaged in the
 business of creating and licensing software in the field of
 computational chemistry and represents and warrants to the
 licensee that it is not a competitor of Gaussian, Inc. and that
 it will not use this program in any manner prohibited above.
 ---------------------------------------------------------------
  

 Cite this work as:
 Gaussian 09, Revision D.01,
 M. J. Frisch, G. W. Trucks, H. B. Schlegel, G. E. Scuseria, 
 M. A. Robb, J. R. Cheeseman, G. Scalmani, V. Barone, B. Mennucci, 
 G. A. Petersson, H. Nakatsuji, M. Caricato, X. Li, H. P. Hratchian, 
 A. F. Izmaylov, J. Bloino, G. Zheng, J. L. Sonnenberg, M. Hada, 
 M. Ehara, K. Toyota, R. Fukuda, J. Hasegawa, M. Ishida, T. Nakajima, 
 Y. Honda, O. Kitao, H. Nakai, T. Vreven, J. A. Montgomery, Jr., 
 J. E. Peralta, F. Ogliaro, M. Bearpark, J. J. Heyd, E. Brothers, 
 K. N. Kudin, V. N. Staroverov, T. Keith, R. Kobayashi, J. Normand, 
 K. Raghavachari, A. Rendell, J. C. Burant, S. S. Iyengar, J. Tomasi, 
 M. Cossi, N. Rega, J. M. Millam, M. Klene, J. E. Knox, J. B. Cross, 
 V. Bakken, C. Adamo, J. Jaramillo, R. Gomperts, R. E. Stratmann, 
 O. Yazyev, A. J. Austin, R. Cammi, C. Pomelli, J. W. Ochterski, 
 R. L. Martin, K. Morokuma, V. G. Zakrzewski, G. A. Voth, 
 P. Salvador, J. J. Dannenberg, S. Dapprich, A. D. Daniels, 
 O. Farkas, J. B. Foresman, J. V. Ortiz, J. Cioslowski, 
 and D. J. Fox, Gaussian, Inc., Wallingford CT, 2013.
 
 ******************************************
 Gaussian 09:  IA32W-G09RevD.01 24-Apr-2013
                28-Mar-2026 
 ******************************************
 %chk=C:\Users\emman\Escritorio\quimica-enlaces\molecula\bn.chk
 --------------
 #p b3lyp/3-21g
 --------------
 1/38=1/1;
 2/12=2,17=6,18=5,40=1/2;
 3/5=5,11=2,16=1,25=1,30=1,74=-5/1,2,3;
 4//1;
 5/5=2,38=5/2;
 6/7=2,8=2,9=2,10=2,28=1/1;
 99/5=1,9=1/99;
 Leave Link    1 at Sat Mar 28 20:12:40 2026, MaxMem=           0 cpu:         0.0
 (Enter C:\G09W\l101.exe)
 ------------------------------------------------
 Title Card Required - Distancia +4.20A - Paso 21
 ------------------------------------------------
 Symbolic Z-matrix:
 Charge =  0 Multiplicity = 2
 Li                    4.64474   1.33044   0. 
 H                     3.11474   1.33044   0. 
 Be                    6.58734  -3.48245   0. 
 H                     5.39734  -3.48245   0. 
 
 NAtoms=      4 NQM=        4 NQMF=       0 NMMI=      0 NMMIF=      0
                NMic=       0 NMicF=      0.
                    Isotopes and Nuclear Properties:
 (Nuclear quadrupole moments (NQMom) in fm**2, nuclear magnetic moments (NMagM)
  in nuclear magnetons)

  Atom         1           2           3           4
 IAtWgt=           7           1           9           1
 AtmWgt=   7.0160045   1.0078250   9.0121825   1.0078250
 NucSpn=           3           1           3           1
 AtZEff=   0.0000000   0.0000000   0.0000000   0.0000000
 NQMom=   -4.0100000   0.0000000   5.2880000   0.0000000
 NMagM=    3.2564240   2.7928460  -1.1779000   2.7928460
 AtZNuc=   3.0000000   1.0000000   4.0000000   1.0000000
 Leave Link  101 at Sat Mar 28 20:12:40 2026, MaxMem=    33554432 cpu:         0.0
 (Enter C:\G09W\l202.exe)
                          Input orientation:                          
 ---------------------------------------------------------------------
 Center     Atomic      Atomic             Coordinates (Angstroms)
 Number     Number       Type             X           Y           Z
 ---------------------------------------------------------------------
      1          3           0        4.644740    1.330443    0.000000
      2          1           0        3.114740    1.330443    0.000000
      3          4           0        6.587338   -3.482448    0.000000
      4          1           0        5.397338   -3.482448    0.000000
 ---------------------------------------------------------------------
                    Distance matrix (angstroms):
                    1          2          3          4
     1  Li   0.000000
     2  H    1.530000   0.000000
     3  Be   5.190145   5.934885   0.000000
     4  H    4.871378   5.326741   1.190000   0.000000
 Stoichiometry    BeH2Li(2)
 Framework group  CS[SG(BeH2Li)]
 Deg. of freedom     5
 Full point group                 CS      NOp   2
 Largest Abelian subgroup         CS      NOp   2
 Largest concise Abelian subgroup C1      NOp   1
                         Standard orientation:                         
 ---------------------------------------------------------------------
 Center     Atomic      Atomic             Coordinates (Angstroms)
 Number     Number       Type             X           Y           Z
 ---------------------------------------------------------------------
      1          3           0        0.280255    2.770296    0.000000
      2          1           0       -1.138535    3.342954    0.000000
      3          4           0        0.280255   -2.419849    0.000000
      4          1           0       -0.823248   -1.974448    0.000000
 ---------------------------------------------------------------------
 Rotational constants (GHZ):    178.2364711      4.1486906      4.0543209
 Leave Link  202 at Sat Mar 28 20:12:40 2026, MaxMem=    33554432 cpu:         0.0
 (Enter C:\G09W\l301.exe)
 Standard basis: 3-21G (6D, 7F)
 Ernie: Thresh=  0.10000D-02 Tol=  0.10000D-05 Strict=F.
 There are    18 symmetry adapted cartesian basis functions of A'  symmetry.
 There are     4 symmetry adapted cartesian basis functions of A"  symmetry.
 There are    18 symmetry adapted basis functions of A'  symmetry.
 There are     4 symmetry adapted basis functions of A"  symmetry.
    22 basis functions,    36 primitive gaussians,    22 cartesian basis functions
     5 alpha electrons        4 beta electrons
       nuclear repulsion energy         4.8217348544 Hartrees.
 IExCor=  402 DFT=T Ex+Corr=B3LYP ExCW=0 ScaHFX=  0.200000
 ScaDFX=  0.800000  0.720000  1.000000  0.810000 ScalE2=  1.000000  1.000000
 IRadAn=      0 IRanWt=     -1 IRanGd=            0 ICorTp=0 IEmpDi=  4
 NAtoms=    4 NActive=    4 NUniq=    4 SFac= 1.00D+00 NAtFMM=   60 NAOKFM=F Big=F
 Integral buffers will be    262144 words long.
 Raffenetti 2 integral format.
 Two-electron integral symmetry is turned on.
 Leave Link  301 at Sat Mar 28 20:12:40 2026, MaxMem=    33554432 cpu:         0.0
 (Enter C:\G09W\l302.exe)
 NPDir=0 NMtPBC=     1 NCelOv=     1 NCel=       1 NClECP=     1 NCelD=      1
         NCelK=      1 NCelE2=     1 NClLst=     1 CellRange=     0.0.
 One-electron integrals computed using PRISM.
 NBasis=    22 RedAO= T EigKep=  9.20D-02  NBF=    18     4
 NBsUse=    22 1.00D-06 EigRej= -1.00D+00 NBFU=    18     4
 Precomputing XC quadrature grid using
 IXCGrd= 4 IRadAn=           0 IRanWt=          -1 IRanGd=           0 AccXCQ= 0.00D+00.
 Generated NRdTot=       0 NPtTot=           0 NUsed=           0 NTot=          16
 NSgBfM=    22    22    22    22    22 MxSgAt=     4 MxSgA2=     4.
 Leave Link  302 at Sat Mar 28 20:12:40 2026, MaxMem=    33554432 cpu:         0.0
 (Enter C:\G09W\l303.exe)
 DipDrv:  MaxL=1.
 Leave Link  303 at Sat Mar 28 20:12:40 2026, MaxMem=    33554432 cpu:         0.0
 (Enter C:\G09W\l401.exe)
 ExpMin= 2.86D-02 ExpMax= 7.19D+01 ExpMxC= 7.19D+01 IAcc=3 IRadAn=         5 AccDes= 0.00D+00
 Harris functional with IExCor=  402 and IRadAn=       5 diagonalized for initial guess.
 HarFok:  IExCor=  402 AccDes= 0.00D+00 IRadAn=         5 IDoV= 1 UseB2=F ITyADJ=14
 ICtDFT=  3500011 ScaDFX=  1.000000  1.000000  1.000000  1.000000
 FoFCou: FMM=F IPFlag=           0 FMFlag=      100000 FMFlg1=           0
         NFxFlg=           0 DoJE=T BraDBF=F KetDBF=T FulRan=T
         wScrn=  0.000000 ICntrl=     500 IOpCl=  0 I1Cent=   200000004 NGrid=           0
         NMat0=    1 NMatS0=      1 NMatT0=    0 NMatD0=    1 NMtDS0=    0 NMtDT0=    0
 Petite list used in FoFCou.
 Harris En= -23.2208423597087    
 JPrj=0 DoOrth=F DoCkMO=F.
 Initial guess orbital symmetries:
 Alpha Orbitals:
       Occupied  (A') (A') (A') (A') (A')
       Virtual   (A') (A") (A') (A") (A') (A') (A") (A') (A') (A')
                 (A') (A") (A') (A') (A') (A') (A')
 Beta  Orbitals:
       Occupied  (A') (A') (A') (A')
       Virtual   (A') (A') (A") (A') (A") (A') (A') (A") (A') (A')
                 (A') (A') (A") (A') (A') (A') (A') (A')
 The electronic state of the initial guess is 2-A'.
 Initial guess <Sx>= 0.0000 <Sy>= 0.0000 <Sz>= 0.5000 <S**2>= 0.7500 S= 0.5000
 Leave Link  401 at Sat Mar 28 20:12:40 2026, MaxMem=    33554432 cpu:         0.0
 (Enter C:\G09W\l502.exe)
 UHF open shell SCF:
 Using DIIS extrapolation, IDIIS=  1040.
 Integral symmetry usage will be decided dynamically.
 Keep R1 and R2 ints in memory in symmetry-blocked form, NReq=914551.
 IVT=       20170 IEndB=       20170 NGot=    33554432 MDV=    33495625
 LenX=    33495625 LenY=    33494700
 Requested convergence on RMS density matrix=1.00D-08 within 128 cycles.
 Requested convergence on MAX density matrix=1.00D-06.
 Requested convergence on             energy=1.00D-06.
 No special actions if energy rises.
 FoFCou: FMM=F IPFlag=           0 FMFlag=           0 FMFlg1=           0
         NFxFlg=           0 DoJE=F BraDBF=F KetDBF=F FulRan=T
         wScrn=  0.000000 ICntrl=     600 IOpCl=  0 I1Cent=           0 NGrid=           0
         NMat0=    1 NMatS0=    253 NMatT0=    0 NMatD0=    1 NMtDS0=    0 NMtDT0=    0
 Petite list used in FoFCou.

 Cycle   1  Pass 1  IDiag  1:
 E= -23.1321293067127    
 DIIS: error= 4.87D-02 at cycle   1 NSaved=   1.
 NSaved= 1 IEnMin= 1 EnMin= -23.1321293067127     IErMin= 1 ErrMin= 4.87D-02
 ErrMax= 4.87D-02  0.00D+00 EMaxC= 1.00D-01 BMatC= 1.06D-01 BMatP= 1.06D-01
 IDIUse=3 WtCom= 5.13D-01 WtEn= 4.87D-01
 Coeff-Com:  0.100D+01
 Coeff-En:   0.100D+01
 Coeff:      0.100D+01
 Gap=     0.150 Goal=   None    Shift=    0.000
 Gap=     0.013 Goal=   None    Shift=    0.000
 GapD=    0.013 DampG=0.250 DampE=0.500 DampFc=0.2500 IDamp=-1.
 Damping current iteration by 2.50D-01
 RMSDP=2.09D-02 MaxDP=1.80D-01              OVMax= 3.65D-01

 Cycle   2  Pass 1  IDiag  1:
 E= -23.1501815978942     Delta-E=       -0.018052291182 Rises=F Damp=T
 DIIS: error= 2.83D-02 at cycle   2 NSaved=   2.
 NSaved= 2 IEnMin= 2 EnMin= -23.1501815978942     IErMin= 2 ErrMin= 2.83D-02
 ErrMax= 2.83D-02  0.00D+00 EMaxC= 1.00D-01 BMatC= 4.01D-02 BMatP= 1.06D-01
 IDIUse=3 WtCom= 7.17D-01 WtEn= 2.83D-01
 Coeff-Com: -0.156D+01 0.256D+01
 Coeff-En:   0.000D+00 0.100D+01
 Coeff:     -0.112D+01 0.212D+01
 Gap=     0.126 Goal=   None    Shift=    0.000
 Gap=     0.122 Goal=   None    Shift=    0.000
 RMSDP=9.54D-03 MaxDP=9.31D-02 DE=-1.81D-02 OVMax= 1.70D-01

 Cycle   3  Pass 1  IDiag  1:
 E= -23.1883878331351     Delta-E=       -0.038206235241 Rises=F Damp=F
 DIIS: error= 4.06D-03 at cycle   3 NSaved=   3.
 NSaved= 3 IEnMin= 3 EnMin= -23.1883878331351     IErMin= 3 ErrMin= 4.06D-03
 ErrMax= 4.06D-03  0.00D+00 EMaxC= 1.00D-01 BMatC= 3.46D-04 BMatP= 4.01D-02
 IDIUse=3 WtCom= 9.59D-01 WtEn= 4.06D-02
 Coeff-Com: -0.402D+00 0.693D+00 0.710D+00
 Coeff-En:   0.000D+00 0.000D+00 0.100D+01
 Coeff:     -0.386D+00 0.664D+00 0.721D+00
 Gap=     0.136 Goal=   None    Shift=    0.000
 Gap=     0.133 Goal=   None    Shift=    0.000
 RMSDP=8.67D-04 MaxDP=7.94D-03 DE=-3.82D-02 OVMax= 1.10D-02

 Cycle   4  Pass 1  IDiag  1:
 E= -23.1885591871725     Delta-E=       -0.000171354037 Rises=F Damp=F
 DIIS: error= 1.36D-03 at cycle   4 NSaved=   4.
 NSaved= 4 IEnMin= 4 EnMin= -23.1885591871725     IErMin= 4 ErrMin= 1.36D-03
 ErrMax= 1.36D-03  0.00D+00 EMaxC= 1.00D-01 BMatC= 4.94D-05 BMatP= 3.46D-04
 IDIUse=3 WtCom= 9.86D-01 WtEn= 1.36D-02
 Coeff-Com: -0.908D-01 0.106D+00-0.146D+00 0.113D+01
 Coeff-En:   0.000D+00 0.000D+00 0.000D+00 0.100D+01
 Coeff:     -0.895D-01 0.104D+00-0.144D+00 0.113D+01
 Gap=     0.133 Goal=   None    Shift=    0.000
 Gap=     0.130 Goal=   None    Shift=    0.000
 RMSDP=2.92D-04 MaxDP=2.83D-03 DE=-1.71D-04 OVMax= 4.16D-03

 Cycle   5  Pass 1  IDiag  1:
 E= -23.1885891895697     Delta-E=       -0.000030002397 Rises=F Damp=F
 DIIS: error= 2.04D-04 at cycle   5 NSaved=   5.
 NSaved= 5 IEnMin= 5 EnMin= -23.1885891895697     IErMin= 5 ErrMin= 2.04D-04
 ErrMax= 2.04D-04  0.00D+00 EMaxC= 1.00D-01 BMatC= 1.22D-06 BMatP= 4.94D-05
 IDIUse=3 WtCom= 9.98D-01 WtEn= 2.04D-03
 Coeff-Com:  0.204D-02-0.208D-02-0.112D-01-0.217D+00 0.123D+01
 Coeff-En:   0.000D+00 0.000D+00 0.000D+00 0.000D+00 0.100D+01
 Coeff:      0.204D-02-0.208D-02-0.112D-01-0.217D+00 0.123D+01
 Gap=     0.133 Goal=   None    Shift=    0.000
 Gap=     0.129 Goal=   None    Shift=    0.000
 RMSDP=6.14D-05 MaxDP=4.82D-04 DE=-3.00D-05 OVMax= 1.17D-03

 Cycle   6  Pass 1  IDiag  1:
 E= -23.1885902136558     Delta-E=       -0.000001024086 Rises=F Damp=F
 DIIS: error= 2.23D-05 at cycle   6 NSaved=   6.
 NSaved= 6 IEnMin= 6 EnMin= -23.1885902136558     IErMin= 6 ErrMin= 2.23D-05
 ErrMax= 2.23D-05  0.00D+00 EMaxC= 1.00D-01 BMatC= 1.49D-08 BMatP= 1.22D-06
 IDIUse=1 WtCom= 1.00D+00 WtEn= 0.00D+00
 Coeff-Com: -0.306D-03 0.943D-03 0.172D-02-0.820D-02-0.117D+00 0.112D+01
 Coeff:     -0.306D-03 0.943D-03 0.172D-02-0.820D-02-0.117D+00 0.112D+01
 Gap=     0.133 Goal=   None    Shift=    0.000
 Gap=     0.129 Goal=   None    Shift=    0.000
 RMSDP=9.68D-06 MaxDP=7.88D-05 DE=-1.02D-06 OVMax= 1.80D-04

 Cycle   7  Pass 1  IDiag  1:
 E= -23.1885902313177     Delta-E=       -0.000000017662 Rises=F Damp=F
 DIIS: error= 2.47D-06 at cycle   7 NSaved=   7.
 NSaved= 7 IEnMin= 7 EnMin= -23.1885902313177     IErMin= 7 ErrMin= 2.47D-06
 ErrMax= 2.47D-06  0.00D+00 EMaxC= 1.00D-01 BMatC= 3.34D-10 BMatP= 1.49D-08
 IDIUse=1 WtCom= 1.00D+00 WtEn= 0.00D+00
 Coeff-Com:  0.443D-03-0.757D-03 0.711D-05 0.537D-02 0.650D-03-0.267D+00
 Coeff-Com:  0.126D+01
 Coeff:      0.443D-03-0.757D-03 0.711D-05 0.537D-02 0.650D-03-0.267D+00
 Coeff:      0.126D+01
 Gap=     0.133 Goal=   None    Shift=    0.000
 Gap=     0.129 Goal=   None    Shift=    0.000
 RMSDP=2.16D-06 MaxDP=2.10D-05 DE=-1.77D-08 OVMax= 6.28D-05

 Cycle   8  Pass 1  IDiag  1:
 E= -23.1885902321842     Delta-E=       -0.000000000866 Rises=F Damp=F
 DIIS: error= 1.61D-06 at cycle   8 NSaved=   8.
 NSaved= 8 IEnMin= 8 EnMin= -23.1885902321842     IErMin= 8 ErrMin= 1.61D-06
 ErrMax= 1.61D-06  0.00D+00 EMaxC= 1.00D-01 BMatC= 5.91D-11 BMatP= 3.34D-10
 IDIUse=1 WtCom= 1.00D+00 WtEn= 0.00D+00
 Coeff-Com:  0.189D-04-0.262D-04-0.908D-05-0.449D-04 0.288D-02 0.206D-01
 Coeff-Com: -0.378D+00 0.135D+01
 Coeff:      0.189D-04-0.262D-04-0.908D-05-0.449D-04 0.288D-02 0.206D-01
 Coeff:     -0.378D+00 0.135D+01
 Gap=     0.133 Goal=   None    Shift=    0.000
 Gap=     0.129 Goal=   None    Shift=    0.000
 RMSDP=6.93D-07 MaxDP=6.44D-06 DE=-8.66D-10 OVMax= 1.77D-05

 Cycle   9  Pass 1  IDiag  1:
 E= -23.1885902322658     Delta-E=       -0.000000000082 Rises=F Damp=F
 DIIS: error= 9.04D-08 at cycle   9 NSaved=   9.
 NSaved= 9 IEnMin= 9 EnMin= -23.1885902322658     IErMin= 9 ErrMin= 9.04D-08
 ErrMax= 9.04D-08  0.00D+00 EMaxC= 1.00D-01 BMatC= 4.25D-13 BMatP= 5.91D-11
 IDIUse=1 WtCom= 1.00D+00 WtEn= 0.00D+00
 Coeff-Com: -0.198D-04 0.317D-04 0.672D-06-0.139D-03-0.240D-03 0.952D-02
 Coeff-Com: -0.323D-01-0.355D-01 0.106D+01
 Coeff:     -0.198D-04 0.317D-04 0.672D-06-0.139D-03-0.240D-03 0.952D-02
 Coeff:     -0.323D-01-0.355D-01 0.106D+01
 Gap=     0.133 Goal=   None    Shift=    0.000
 Gap=     0.129 Goal=   None    Shift=    0.000
 RMSDP=6.61D-08 MaxDP=6.16D-07 DE=-8.17D-11 OVMax= 1.37D-06

 Cycle  10  Pass 1  IDiag  1:
 E= -23.1885902322666     Delta-E=       -0.000000000001 Rises=F Damp=F
 DIIS: error= 8.15D-08 at cycle  10 NSaved=  10.
 NSaved=10 IEnMin=10 EnMin= -23.1885902322666     IErMin=10 ErrMin= 8.15D-08
 ErrMax= 8.15D-08  0.00D+00 EMaxC= 1.00D-01 BMatC= 1.04D-13 BMatP= 4.25D-13
 IDIUse=1 WtCom= 1.00D+00 WtEn= 0.00D+00
 Coeff-Com: -0.284D-05 0.356D-05 0.153D-05 0.160D-04-0.119D-04-0.352D-02
 Coeff-Com:  0.265D-01-0.554D-01-0.316D+00 0.135D+01
 Coeff:     -0.284D-05 0.356D-05 0.153D-05 0.160D-04-0.119D-04-0.352D-02
 Coeff:      0.265D-01-0.554D-01-0.316D+00 0.135D+01
 Gap=     0.133 Goal=   None    Shift=    0.000
 Gap=     0.129 Goal=   None    Shift=    0.000
 RMSDP=2.46D-08 MaxDP=2.96D-07 DE=-7.53D-13 OVMax= 4.22D-07

 Cycle  11  Pass 1  IDiag  1:
 E= -23.1885902322668     Delta-E=        0.000000000000 Rises=F Damp=F
 DIIS: error= 2.21D-08 at cycle  11 NSaved=  11.
 NSaved=11 IEnMin=11 EnMin= -23.1885902322668     IErMin=11 ErrMin= 2.21D-08
 ErrMax= 2.21D-08  0.00D+00 EMaxC= 1.00D-01 BMatC= 6.55D-15 BMatP= 1.04D-13
 IDIUse=1 WtCom= 1.00D+00 WtEn= 0.00D+00
 Coeff-Com:  0.263D-06-0.310D-06-0.172D-05-0.306D-05 0.342D-04 0.738D-03
 Coeff-Com: -0.859D-02 0.246D-01 0.495D-01-0.464D+00 0.140D+01
 Coeff:      0.263D-06-0.310D-06-0.172D-05-0.306D-05 0.342D-04 0.738D-03
 Coeff:     -0.859D-02 0.246D-01 0.495D-01-0.464D+00 0.140D+01
 Gap=     0.133 Goal=   None    Shift=    0.000
 Gap=     0.129 Goal=   None    Shift=    0.000
 RMSDP=6.81D-09 MaxDP=9.95D-08 DE=-1.95D-13 OVMax= 1.45D-07

 SCF Done:  E(UB3LYP) =  -23.1885902323     A.U. after   11 cycles
            NFock= 11  Conv=0.68D-08     -V/T= 2.0052
 <Sx>= 0.0000 <Sy>= 0.0000 <Sz>= 0.5000 <S**2>= 0.7505 S= 0.5003
 <L.S>= 0.000000000000E+00
 KE= 2.306874307427D+01 PE=-6.255805813120D+01 EE= 1.147898997027D+01
 Annihilation of the first spin contaminant:
 S**2 before annihilation     0.7505,   after     0.7500
 Leave Link  502 at Sat Mar 28 20:12:41 2026, MaxMem=    33554432 cpu:         1.0
 (Enter C:\G09W\l601.exe)
 Copying SCF densities to generalized density rwf, IOpCl= 1 IROHF=0.

 **********************************************************************

            Population analysis using the SCF density.

 **********************************************************************

 Orbital symmetries:
 Alpha Orbitals:
       Occupied  (A') (A') (A') (A') (A')
       Virtual   (A') (A") (A') (A") (A') (A') (A') (A") (A') (A')
                 (A') (A") (A') (A') (A') (A') (A')
 Beta  Orbitals:
       Occupied  (A') (A') (A') (A')
       Virtual   (A') (A') (A") (A') (A") (A') (A') (A') (A") (A')
                 (A') (A') (A") (A') (A') (A') (A') (A')
 The electronic state is 2-A'.
 Alpha  occ. eigenvalues --   -4.03606  -1.97602  -0.37136  -0.20464  -0.19665
 Alpha virt. eigenvalues --   -0.06405  -0.05479  -0.03769  -0.00407   0.00359
 Alpha virt. eigenvalues --    0.06701   0.11280   0.12176   0.12734   0.15197
 Alpha virt. eigenvalues --    0.25209   0.28647   0.29589   0.30989   0.45692
 Alpha virt. eigenvalues --    1.17009   1.19411
  Beta  occ. eigenvalues --   -4.02792  -1.97602  -0.35874  -0.19663
  Beta virt. eigenvalues --   -0.06764  -0.05089  -0.03365  -0.02978  -0.00364
  Beta virt. eigenvalues --    0.00708   0.06736   0.11329   0.12171   0.12855
  Beta virt. eigenvalues --    0.16542   0.25187   0.29665   0.30973   0.35489
  Beta virt. eigenvalues --    0.47738   1.17075   1.20964
          Condensed to atoms (all electrons):
               1          2          3          4
     1  Li   2.463767   0.379012   0.004108   0.000520
     2  H    0.379012   0.780116  -0.000028   0.000000
     3  Be   0.004108  -0.000028   3.499840   0.405685
     4  H    0.000520   0.000000   0.405685   0.677683
          Atomic-Atomic Spin Densities.
               1          2          3          4
     1  Li   0.000255   0.000016   0.003190  -0.000486
     2  H    0.000016   0.000216   0.000002   0.000000
     3  Be   0.003190   0.000002   0.931271  -0.011590
     4  H   -0.000486   0.000000  -0.011590   0.085997
 Mulliken charges and spin densities:
               1          2
     1  Li   0.152593   0.002975
     2  H   -0.159100   0.000233
     3  Be   0.090395   0.922872
     4  H   -0.083888   0.073920
 Sum of Mulliken charges =   0.00000   1.00000
 Mulliken charges and spin densities with hydrogens summed into heavy atoms:
               1          2
     1  Li  -0.006507   0.003208
     3  Be   0.006507   0.996792
 Electronic spatial extent (au):  <R**2>=            268.6284
 Charge=              0.0000 electrons
 Dipole moment (field-independent basis, Debye):
    X=              4.9751    Y=             -2.2386    Z=              0.0000  Tot=              5.4556
 Quadrupole moment (field-independent basis, Debye-Ang):
   XX=            -17.2334   YY=            -24.0798   ZZ=            -12.3853
   XY=             16.7483   XZ=              0.0000   YZ=              0.0000
 Traceless Quadrupole moment (field-independent basis, Debye-Ang):
   XX=              0.6661   YY=             -6.1803   ZZ=              5.5142
   XY=             16.7483   XZ=              0.0000   YZ=              0.0000
 Octapole moment (field-independent basis, Debye-Ang**2):
  XXX=              6.3742  YYY=            -60.8306  ZZZ=              0.0000  XYY=             42.1970
  XXY=              0.4841  XXZ=              0.0000  XZZ=              2.3385  YZZ=             -2.7516
  YYZ=              0.0000  XYZ=              0.0000
 Hexadecapole moment (field-independent basis, Debye-Ang**3):
 XXXX=            -66.4975 YYYY=           -817.9467 ZZZZ=            -29.6214 XXXY=             61.8967
 XXXZ=              0.0000 YYYX=            214.3186 YYYZ=              0.0000 ZZZX=              0.0000
 ZZZY=              0.0000 XXYY=           -148.5035 XXZZ=            -15.6439 YYZZ=           -105.1843
 XXYZ=              0.0000 YYXZ=              0.0000 ZZXY=             17.4148
 N-N= 4.821734854393D+00 E-N=-6.255805810100D+01  KE= 2.306874307427D+01
 Symmetry A'   KE= 2.306874307427D+01
 Symmetry A"   KE= 0.000000000000D+00
                          Isotropic Fermi Contact Couplings
        Atom                 a.u.       MegaHertz       Gauss      10(-4) cm-1
     1  Li(7)             -0.00007      -0.11736      -0.04188      -0.03915
     2  H(1)               0.00007       0.32613       0.11637       0.10878
     3  Be(9)              0.21632    -135.93437     -48.50476     -45.34283
     4  H(1)               0.03433     153.46758      54.76105      51.19127
 --------------------------------------------------------
       Center         ----  Spin Dipole Couplings  ----
                      3XX-RR        3YY-RR        3ZZ-RR
 --------------------------------------------------------
     1   Atom       -0.000834      0.001763     -0.000929
     2   Atom       -0.000386      0.000974     -0.000588
     3   Atom        0.098270     -0.038017     -0.060253
     4   Atom        0.020567     -0.007694     -0.012873
 --------------------------------------------------------
                        XY            XZ            YZ
 --------------------------------------------------------
     1   Atom       -0.000350      0.000000      0.000000
     2   Atom       -0.000516      0.000000      0.000000
     3   Atom       -0.059216      0.000000      0.000000
     4   Atom       -0.013130      0.000000      0.000000
 --------------------------------------------------------


 ---------------------------------------------------------------------------------
              Anisotropic Spin Dipole Couplings in Principal Axis System
 ---------------------------------------------------------------------------------

       Atom             a.u.   MegaHertz   Gauss  10(-4) cm-1        Axes

              Baa    -0.0009    -0.193    -0.069    -0.064  0.0000  0.0000  1.0000
     1 Li(7)  Bbb    -0.0009    -0.182    -0.065    -0.061  0.9914  0.1312  0.0000
              Bcc     0.0018     0.375     0.134     0.125 -0.1312  0.9914  0.0000
 
              Baa    -0.0006    -0.314    -0.112    -0.105  0.0000  0.0000  1.0000
     2 H(1)   Bbb    -0.0006    -0.299    -0.107    -0.100  0.9478  0.3189  0.0000
              Bcc     0.0011     0.612     0.219     0.204 -0.3189  0.9478  0.0000
 
              Baa    -0.0603     4.520     1.613     1.508  0.0000  0.0000  1.0000
     3 Be(9)  Bbb    -0.0602     4.512     1.610     1.505  0.3501  0.9367  0.0000
              Bcc     0.1204    -9.031    -3.223    -3.013  0.9367 -0.3501  0.0000
 
              Baa    -0.0129    -6.868    -2.451    -2.291  0.0000  0.0000  1.0000
     4 H(1)   Bbb    -0.0129    -6.858    -2.447    -2.287  0.3657  0.9307  0.0000
              Bcc     0.0257    13.726     4.898     4.579  0.9307 -0.3657  0.0000
 

 ---------------------------------------------------------------------------------

 No NMR shielding tensors so no spin-rotation constants.
 Leave Link  601 at Sat Mar 28 20:12:41 2026, MaxMem=    33554432 cpu:         0.0
 (Enter C:\G09W\l9999.exe)
 1|1|UNPC-INANI_LAP|SP|UB3LYP|3-21G|Be1H2Li1(2)|EMMAN|28-Mar-2026|0||#p
  b3lyp/3-21g||Title Card Required - Distancia +4.20A - Paso 21||0,2|Li
 ,0,4.64474019,1.33044279,0.|H,0,3.11474019,1.33044279,0.|Be,0,6.587338
 33,-3.48244791,0.|H,0,5.39733833,-3.48244791,0.||Version=IA32W-G09RevD
 .01|State=2-A'|HF=-23.1885902|S2=0.750538|S2-1=0.|S2A=0.75|RMSD=6.806e
 -009|Dipole=2.1447357,-0.0841229,0.|Quadrupole=-8.8615104,4.7618642,4.
 0996462,10.7298581,0.,0.|PG=CS [SG(Be1H2Li1)]||@


 MAN IS A SINGULAR CREATURE.  HE HAS A SET OF GIFTS
 WHICH MAKE HIM UNIQUE AMONG THE ANIMALS: SO THAT, 
 UNLIKE THEM, HE IS NOT A FIGURE IN THE LANDSCAPE --
 HE IS A SHAPER OF THE LANDSCAPE.

                       -- JACOB BRONOWSKI
 Job cpu time:       0 days  0 hours  0 minutes  1.0 seconds.
 File lengths (MBytes):  RWF=      5 Int=      0 D2E=      0 Chk=      1 Scr=      1
 Normal termination of Gaussian 09 at Sat Mar 28 20:12:41 2026.
