 Entering Link 1 = C:\G09W\l1.exe PID=      3372.
  
 Copyright (c) 1988,1990,1992,1993,1995,1998,2003,2009,2013,
            Gaussian, Inc.  All Rights Reserved.
  
 This is part of the Gaussian(R) 09 program.  It is based on
 the Gaussian(R) 03 system (copyright 2003, Gaussian, Inc.),
 the Gaussian(R) 98 system (copyright 1998, Gaussian, Inc.),
 the Gaussian(R) 94 system (copyright 1995, Gaussian, Inc.),
 the Gaussian 92(TM) system (copyright 1992, Gaussian, Inc.),
 the Gaussian 90(TM) system (copyright 1990, Gaussian, Inc.),
 the Gaussian 88(TM) system (copyright 1988, Gaussian, Inc.),
 the Gaussian 86(TM) system (copyright 1986, Carnegie Mellon
 University), and the Gaussian 82(TM) system (copyright 1983,
 Carnegie Mellon University). Gaussian is a federally registered
 trademark of Gaussian, Inc.
  
 This software contains proprietary and confidential information,
 including trade secrets, belonging to Gaussian, Inc.
  
 This software is provided under written license and may be
 used, copied, transmitted, or stored only in accord with that
 written license.
  
 The following legend is applicable only to US Government
 contracts under FAR:
  
                    RESTRICTED RIGHTS LEGEND
  
 Use, reproduction and disclosure by the US Government is
 subject to restrictions as set forth in subparagraphs (a)
 and (c) of the Commercial Computer Software - Restricted
 Rights clause in FAR 52.227-19.
  
 Gaussian, Inc.
 340 Quinnipiac St., Bldg. 40, Wallingford CT 06492
  
  
 ---------------------------------------------------------------
 Warning -- This program may not be used in any manner that
 competes with the business of Gaussian, Inc. or will provide
 assistance to any competitor of Gaussian, Inc.  The licensee
 of this program is prohibited from giving any competitor of
 Gaussian, Inc. access to this program.  By using this program,
 the user acknowledges that Gaussian, Inc. is engaged in the
 business of creating and licensing software in the field of
 computational chemistry and represents and warrants to the
 licensee that it is not a competitor of Gaussian, Inc. and that
 it will not use this program in any manner prohibited above.
 ---------------------------------------------------------------
  

 Cite this work as:
 Gaussian 09, Revision D.01,
 M. J. Frisch, G. W. Trucks, H. B. Schlegel, G. E. Scuseria, 
 M. A. Robb, J. R. Cheeseman, G. Scalmani, V. Barone, B. Mennucci, 
 G. A. Petersson, H. Nakatsuji, M. Caricato, X. Li, H. P. Hratchian, 
 A. F. Izmaylov, J. Bloino, G. Zheng, J. L. Sonnenberg, M. Hada, 
 M. Ehara, K. Toyota, R. Fukuda, J. Hasegawa, M. Ishida, T. Nakajima, 
 Y. Honda, O. Kitao, H. Nakai, T. Vreven, J. A. Montgomery, Jr., 
 J. E. Peralta, F. Ogliaro, M. Bearpark, J. J. Heyd, E. Brothers, 
 K. N. Kudin, V. N. Staroverov, T. Keith, R. Kobayashi, J. Normand, 
 K. Raghavachari, A. Rendell, J. C. Burant, S. S. Iyengar, J. Tomasi, 
 M. Cossi, N. Rega, J. M. Millam, M. Klene, J. E. Knox, J. B. Cross, 
 V. Bakken, C. Adamo, J. Jaramillo, R. Gomperts, R. E. Stratmann, 
 O. Yazyev, A. J. Austin, R. Cammi, C. Pomelli, J. W. Ochterski, 
 R. L. Martin, K. Morokuma, V. G. Zakrzewski, G. A. Voth, 
 P. Salvador, J. J. Dannenberg, S. Dapprich, A. D. Daniels, 
 O. Farkas, J. B. Foresman, J. V. Ortiz, J. Cioslowski, 
 and D. J. Fox, Gaussian, Inc., Wallingford CT, 2013.
 
 ******************************************
 Gaussian 09:  IA32W-G09RevD.01 24-Apr-2013
                28-Mar-2026 
 ******************************************
 %chk=C:\Users\emman\Escritorio\quimica-enlaces\molecula\bn.chk
 --------------
 #p b3lyp/3-21g
 --------------
 1/38=1/1;
 2/12=2,17=6,18=5,40=1/2;
 3/5=5,11=2,16=1,25=1,30=1,74=-5/1,2,3;
 4//1;
 5/5=2,38=5/2;
 6/7=2,8=2,9=2,10=2,28=1/1;
 99/5=1,9=1/99;
 Leave Link    1 at Sat Mar 28 20:12:38 2026, MaxMem=           0 cpu:         0.0
 (Enter C:\G09W\l101.exe)
 ------------------------------------------------
 Title Card Required - Distancia +4.00A - Paso 20
 ------------------------------------------------
 Symbolic Z-matrix:
 Charge =  0 Multiplicity = 2
 Li                    4.64474   1.33044   0. 
 H                     3.11474   1.33044   0. 
 Be                    6.50695  -3.29931   0. 
 H                     5.31695  -3.29931   0. 
 
 NAtoms=      4 NQM=        4 NQMF=       0 NMMI=      0 NMMIF=      0
                NMic=       0 NMicF=      0.
                    Isotopes and Nuclear Properties:
 (Nuclear quadrupole moments (NQMom) in fm**2, nuclear magnetic moments (NMagM)
  in nuclear magnetons)

  Atom         1           2           3           4
 IAtWgt=           7           1           9           1
 AtmWgt=   7.0160045   1.0078250   9.0121825   1.0078250
 NucSpn=           3           1           3           1
 AtZEff=   0.0000000   0.0000000   0.0000000   0.0000000
 NQMom=   -4.0100000   0.0000000   5.2880000   0.0000000
 NMagM=    3.2564240   2.7928460  -1.1779000   2.7928460
 AtZNuc=   3.0000000   1.0000000   4.0000000   1.0000000
 Leave Link  101 at Sat Mar 28 20:12:39 2026, MaxMem=    33554432 cpu:         1.0
 (Enter C:\G09W\l202.exe)
                          Input orientation:                          
 ---------------------------------------------------------------------
 Center     Atomic      Atomic             Coordinates (Angstroms)
 Number     Number       Type             X           Y           Z
 ---------------------------------------------------------------------
      1          3           0        4.644740    1.330443    0.000000
      2          1           0        3.114740    1.330443    0.000000
      3          4           0        6.506952   -3.299314    0.000000
      4          1           0        5.316952   -3.299314    0.000000
 ---------------------------------------------------------------------
                    Distance matrix (angstroms):
                    1          2          3          4
     1  Li   0.000000
     2  H    1.530000   0.000000
     3  Be   4.990239   5.739490   0.000000
     4  H    4.678303   5.126830   1.190000   0.000000
 Stoichiometry    BeH2Li(2)
 Framework group  CS[SG(BeH2Li)]
 Deg. of freedom     5
 Full point group                 CS      NOp   2
 Largest Abelian subgroup         CS      NOp   2
 Largest concise Abelian subgroup C1      NOp   1
                         Standard orientation:                         
 ---------------------------------------------------------------------
 Center     Atomic      Atomic             Coordinates (Angstroms)
 Number     Number       Type             X           Y           Z
 ---------------------------------------------------------------------
      1          3           0        0.280390    2.659574    0.000000
      2          1           0       -1.139086    3.230526    0.000000
      3          4           0        0.280390   -2.330664    0.000000
      4          1           0       -0.823647   -1.886591    0.000000
 ---------------------------------------------------------------------
 Rotational constants (GHZ):    178.1944903      4.4844484      4.3743631
 Leave Link  202 at Sat Mar 28 20:12:39 2026, MaxMem=    33554432 cpu:         0.0
 (Enter C:\G09W\l301.exe)
 Standard basis: 3-21G (6D, 7F)
 Ernie: Thresh=  0.10000D-02 Tol=  0.10000D-05 Strict=F.
 There are    18 symmetry adapted cartesian basis functions of A'  symmetry.
 There are     4 symmetry adapted cartesian basis functions of A"  symmetry.
 There are    18 symmetry adapted basis functions of A'  symmetry.
 There are     4 symmetry adapted basis functions of A"  symmetry.
    22 basis functions,    36 primitive gaussians,    22 cartesian basis functions
     5 alpha electrons        4 beta electrons
       nuclear repulsion energy         4.9002127242 Hartrees.
 IExCor=  402 DFT=T Ex+Corr=B3LYP ExCW=0 ScaHFX=  0.200000
 ScaDFX=  0.800000  0.720000  1.000000  0.810000 ScalE2=  1.000000  1.000000
 IRadAn=      0 IRanWt=     -1 IRanGd=            0 ICorTp=0 IEmpDi=  4
 NAtoms=    4 NActive=    4 NUniq=    4 SFac= 1.00D+00 NAtFMM=   60 NAOKFM=F Big=F
 Integral buffers will be    262144 words long.
 Raffenetti 2 integral format.
 Two-electron integral symmetry is turned on.
 Leave Link  301 at Sat Mar 28 20:12:39 2026, MaxMem=    33554432 cpu:         0.0
 (Enter C:\G09W\l302.exe)
 NPDir=0 NMtPBC=     1 NCelOv=     1 NCel=       1 NClECP=     1 NCelD=      1
         NCelK=      1 NCelE2=     1 NClLst=     1 CellRange=     0.0.
 One-electron integrals computed using PRISM.
 NBasis=    22 RedAO= T EigKep=  9.08D-02  NBF=    18     4
 NBsUse=    22 1.00D-06 EigRej= -1.00D+00 NBFU=    18     4
 Precomputing XC quadrature grid using
 IXCGrd= 4 IRadAn=           0 IRanWt=          -1 IRanGd=           0 AccXCQ= 0.00D+00.
 Generated NRdTot=       0 NPtTot=           0 NUsed=           0 NTot=          16
 NSgBfM=    22    22    22    22    22 MxSgAt=     4 MxSgA2=     4.
 Leave Link  302 at Sat Mar 28 20:12:39 2026, MaxMem=    33554432 cpu:         0.0
 (Enter C:\G09W\l303.exe)
 DipDrv:  MaxL=1.
 Leave Link  303 at Sat Mar 28 20:12:39 2026, MaxMem=    33554432 cpu:         0.0
 (Enter C:\G09W\l401.exe)
 ExpMin= 2.86D-02 ExpMax= 7.19D+01 ExpMxC= 7.19D+01 IAcc=3 IRadAn=         5 AccDes= 0.00D+00
 Harris functional with IExCor=  402 and IRadAn=       5 diagonalized for initial guess.
 HarFok:  IExCor=  402 AccDes= 0.00D+00 IRadAn=         5 IDoV= 1 UseB2=F ITyADJ=14
 ICtDFT=  3500011 ScaDFX=  1.000000  1.000000  1.000000  1.000000
 FoFCou: FMM=F IPFlag=           0 FMFlag=      100000 FMFlg1=           0
         NFxFlg=           0 DoJE=T BraDBF=F KetDBF=T FulRan=T
         wScrn=  0.000000 ICntrl=     500 IOpCl=  0 I1Cent=   200000004 NGrid=           0
         NMat0=    1 NMatS0=      1 NMatT0=    0 NMatD0=    1 NMtDS0=    0 NMtDT0=    0
 Petite list used in FoFCou.
 Harris En= -23.2208266476185    
 JPrj=0 DoOrth=F DoCkMO=F.
 Initial guess orbital symmetries:
 Alpha Orbitals:
       Occupied  (A') (A') (A') (A') (A')
       Virtual   (A') (A") (A') (A") (A') (A') (A") (A') (A') (A')
                 (A') (A") (A') (A') (A') (A') (A')
 Beta  Orbitals:
       Occupied  (A') (A') (A') (A')
       Virtual   (A') (A') (A") (A') (A") (A') (A') (A") (A') (A')
                 (A') (A') (A") (A') (A') (A') (A') (A')
 The electronic state of the initial guess is 2-A'.
 Initial guess <Sx>= 0.0000 <Sy>= 0.0000 <Sz>= 0.5000 <S**2>= 0.7500 S= 0.5000
 Leave Link  401 at Sat Mar 28 20:12:39 2026, MaxMem=    33554432 cpu:         0.0
 (Enter C:\G09W\l502.exe)
 UHF open shell SCF:
 Using DIIS extrapolation, IDIIS=  1040.
 Integral symmetry usage will be decided dynamically.
 Keep R1 and R2 ints in memory in symmetry-blocked form, NReq=914551.
 IVT=       20170 IEndB=       20170 NGot=    33554432 MDV=    33495625
 LenX=    33495625 LenY=    33494700
 Requested convergence on RMS density matrix=1.00D-08 within 128 cycles.
 Requested convergence on MAX density matrix=1.00D-06.
 Requested convergence on             energy=1.00D-06.
 No special actions if energy rises.
 FoFCou: FMM=F IPFlag=           0 FMFlag=           0 FMFlg1=           0
         NFxFlg=           0 DoJE=F BraDBF=F KetDBF=F FulRan=T
         wScrn=  0.000000 ICntrl=     600 IOpCl=  0 I1Cent=           0 NGrid=           0
         NMat0=    1 NMatS0=    253 NMatT0=    0 NMatD0=    1 NMtDS0=    0 NMtDT0=    0
 Petite list used in FoFCou.

 Cycle   1  Pass 1  IDiag  1:
 E= -23.1319011568678    
 DIIS: error= 4.83D-02 at cycle   1 NSaved=   1.
 NSaved= 1 IEnMin= 1 EnMin= -23.1319011568678     IErMin= 1 ErrMin= 4.83D-02
 ErrMax= 4.83D-02  0.00D+00 EMaxC= 1.00D-01 BMatC= 1.06D-01 BMatP= 1.06D-01
 IDIUse=3 WtCom= 5.17D-01 WtEn= 4.83D-01
 Coeff-Com:  0.100D+01
 Coeff-En:   0.100D+01
 Coeff:      0.100D+01
 Gap=     0.149 Goal=   None    Shift=    0.000
 Gap=     0.011 Goal=   None    Shift=    0.000
 GapD=    0.011 DampG=0.250 DampE=0.500 DampFc=0.2500 IDamp=-1.
 Damping current iteration by 2.50D-01
 RMSDP=2.10D-02 MaxDP=1.80D-01              OVMax= 3.69D-01

 Cycle   2  Pass 1  IDiag  1:
 E= -23.1499775967433     Delta-E=       -0.018076439876 Rises=F Damp=T
 DIIS: error= 2.81D-02 at cycle   2 NSaved=   2.
 NSaved= 2 IEnMin= 2 EnMin= -23.1499775967433     IErMin= 2 ErrMin= 2.81D-02
 ErrMax= 2.81D-02  0.00D+00 EMaxC= 1.00D-01 BMatC= 4.01D-02 BMatP= 1.06D-01
 IDIUse=3 WtCom= 7.19D-01 WtEn= 2.81D-01
 Coeff-Com: -0.156D+01 0.256D+01
 Coeff-En:   0.000D+00 0.100D+01
 Coeff:     -0.112D+01 0.212D+01
 Gap=     0.124 Goal=   None    Shift=    0.000
 Gap=     0.121 Goal=   None    Shift=    0.000
 RMSDP=9.50D-03 MaxDP=9.02D-02 DE=-1.81D-02 OVMax= 1.76D-01

 Cycle   3  Pass 1  IDiag  1:
 E= -23.1883303036508     Delta-E=       -0.038352706907 Rises=F Damp=F
 DIIS: error= 4.05D-03 at cycle   3 NSaved=   3.
 NSaved= 3 IEnMin= 3 EnMin= -23.1883303036508     IErMin= 3 ErrMin= 4.05D-03
 ErrMax= 4.05D-03  0.00D+00 EMaxC= 1.00D-01 BMatC= 3.51D-04 BMatP= 4.01D-02
 IDIUse=3 WtCom= 9.59D-01 WtEn= 4.05D-02
 Coeff-Com: -0.421D+00 0.720D+00 0.701D+00
 Coeff-En:   0.000D+00 0.000D+00 0.100D+01
 Coeff:     -0.404D+00 0.691D+00 0.713D+00
 Gap=     0.135 Goal=   None    Shift=    0.000
 Gap=     0.131 Goal=   None    Shift=    0.000
 RMSDP=8.55D-04 MaxDP=7.99D-03 DE=-3.84D-02 OVMax= 1.10D-02

 Cycle   4  Pass 1  IDiag  1:
 E= -23.1884987588383     Delta-E=       -0.000168455188 Rises=F Damp=F
 DIIS: error= 1.43D-03 at cycle   4 NSaved=   4.
 NSaved= 4 IEnMin= 4 EnMin= -23.1884987588383     IErMin= 4 ErrMin= 1.43D-03
 ErrMax= 1.43D-03  0.00D+00 EMaxC= 1.00D-01 BMatC= 5.45D-05 BMatP= 3.51D-04
 IDIUse=3 WtCom= 9.86D-01 WtEn= 1.43D-02
 Coeff-Com: -0.926D-01 0.107D+00-0.153D+00 0.114D+01
 Coeff-En:   0.000D+00 0.000D+00 0.000D+00 0.100D+01
 Coeff:     -0.913D-01 0.106D+00-0.151D+00 0.114D+01
 Gap=     0.131 Goal=   None    Shift=    0.000
 Gap=     0.128 Goal=   None    Shift=    0.000
 RMSDP=3.07D-04 MaxDP=3.02D-03 DE=-1.68D-04 OVMax= 4.40D-03

 Cycle   5  Pass 1  IDiag  1:
 E= -23.1885320830691     Delta-E=       -0.000033324231 Rises=F Damp=F
 DIIS: error= 2.17D-04 at cycle   5 NSaved=   5.
 NSaved= 5 IEnMin= 5 EnMin= -23.1885320830691     IErMin= 5 ErrMin= 2.17D-04
 ErrMax= 2.17D-04  0.00D+00 EMaxC= 1.00D-01 BMatC= 1.34D-06 BMatP= 5.45D-05
 IDIUse=3 WtCom= 9.98D-01 WtEn= 2.17D-03
 Coeff-Com:  0.193D-02-0.184D-02-0.108D-01-0.214D+00 0.122D+01
 Coeff-En:   0.000D+00 0.000D+00 0.000D+00 0.000D+00 0.100D+01
 Coeff:      0.192D-02-0.184D-02-0.107D-01-0.214D+00 0.122D+01
 Gap=     0.131 Goal=   None    Shift=    0.000
 Gap=     0.127 Goal=   None    Shift=    0.000
 RMSDP=6.37D-05 MaxDP=5.27D-04 DE=-3.33D-05 OVMax= 1.20D-03

 Cycle   6  Pass 1  IDiag  1:
 E= -23.1885331896144     Delta-E=       -0.000001106545 Rises=F Damp=F
 DIIS: error= 2.38D-05 at cycle   6 NSaved=   6.
 NSaved= 6 IEnMin= 6 EnMin= -23.1885331896144     IErMin= 6 ErrMin= 2.38D-05
 ErrMax= 2.38D-05  0.00D+00 EMaxC= 1.00D-01 BMatC= 1.58D-08 BMatP= 1.34D-06
 IDIUse=1 WtCom= 1.00D+00 WtEn= 0.00D+00
 Coeff-Com: -0.261D-03 0.853D-03 0.189D-02-0.524D-02-0.133D+00 0.114D+01
 Coeff:     -0.261D-03 0.853D-03 0.189D-02-0.524D-02-0.133D+00 0.114D+01
 Gap=     0.131 Goal=   None    Shift=    0.000
 Gap=     0.127 Goal=   None    Shift=    0.000
 RMSDP=1.00D-05 MaxDP=8.75D-05 DE=-1.11D-06 OVMax= 1.86D-04

 Cycle   7  Pass 1  IDiag  1:
 E= -23.1885332086868     Delta-E=       -0.000000019072 Rises=F Damp=F
 DIIS: error= 2.87D-06 at cycle   7 NSaved=   7.
 NSaved= 7 IEnMin= 7 EnMin= -23.1885332086868     IErMin= 7 ErrMin= 2.87D-06
 ErrMax= 2.87D-06  0.00D+00 EMaxC= 1.00D-01 BMatC= 3.72D-10 BMatP= 1.58D-08
 IDIUse=1 WtCom= 1.00D+00 WtEn= 0.00D+00
 Coeff-Com:  0.432D-03-0.745D-03-0.739D-04 0.497D-02 0.599D-02-0.289D+00
 Coeff-Com:  0.128D+01
 Coeff:      0.432D-03-0.745D-03-0.739D-04 0.497D-02 0.599D-02-0.289D+00
 Coeff:      0.128D+01
 Gap=     0.131 Goal=   None    Shift=    0.000
 Gap=     0.127 Goal=   None    Shift=    0.000
 RMSDP=2.27D-06 MaxDP=2.17D-05 DE=-1.91D-08 OVMax= 6.57D-05

 Cycle   8  Pass 1  IDiag  1:
 E= -23.1885332096464     Delta-E=       -0.000000000960 Rises=F Damp=F
 DIIS: error= 1.75D-06 at cycle   8 NSaved=   8.
 NSaved= 8 IEnMin= 8 EnMin= -23.1885332096464     IErMin= 8 ErrMin= 1.75D-06
 ErrMax= 1.75D-06  0.00D+00 EMaxC= 1.00D-01 BMatC= 6.20D-11 BMatP= 3.72D-10
 IDIUse=1 WtCom= 1.00D+00 WtEn= 0.00D+00
 Coeff-Com:  0.132D-04-0.175D-04 0.236D-05-0.441D-05 0.202D-02 0.246D-01
 Coeff-Com: -0.384D+00 0.136D+01
 Coeff:      0.132D-04-0.175D-04 0.236D-05-0.441D-05 0.202D-02 0.246D-01
 Coeff:     -0.384D+00 0.136D+01
 Gap=     0.131 Goal=   None    Shift=    0.000
 Gap=     0.127 Goal=   None    Shift=    0.000
 RMSDP=7.25D-07 MaxDP=6.52D-06 DE=-9.60D-10 OVMax= 1.80D-05

 Cycle   9  Pass 1  IDiag  1:
 E= -23.1885332097337     Delta-E=       -0.000000000087 Rises=F Damp=F
 DIIS: error= 1.37D-07 at cycle   9 NSaved=   9.
 NSaved= 9 IEnMin= 9 EnMin= -23.1885332097337     IErMin= 9 ErrMin= 1.37D-07
 ErrMax= 1.37D-07  0.00D+00 EMaxC= 1.00D-01 BMatC= 5.72D-13 BMatP= 6.20D-11
 IDIUse=1 WtCom= 1.00D+00 WtEn= 0.00D+00
 Coeff-Com: -0.217D-04 0.346D-04 0.227D-05-0.137D-03-0.405D-03 0.994D-02
 Coeff-Com: -0.276D-01-0.570D-01 0.108D+01
 Coeff:     -0.217D-04 0.346D-04 0.227D-05-0.137D-03-0.405D-03 0.994D-02
 Coeff:     -0.276D-01-0.570D-01 0.108D+01
 Gap=     0.131 Goal=   None    Shift=    0.000
 Gap=     0.127 Goal=   None    Shift=    0.000
 RMSDP=7.28D-08 MaxDP=6.19D-07 DE=-8.73D-11 OVMax= 1.22D-06

 Cycle  10  Pass 1  IDiag  1:
 E= -23.1885332097348     Delta-E=       -0.000000000001 Rises=F Damp=F
 DIIS: error= 1.01D-07 at cycle  10 NSaved=  10.
 NSaved=10 IEnMin=10 EnMin= -23.1885332097348     IErMin=10 ErrMin= 1.01D-07
 ErrMax= 1.01D-07  0.00D+00 EMaxC= 1.00D-01 BMatC= 1.47D-13 BMatP= 5.72D-13
 IDIUse=1 WtCom= 1.00D+00 WtEn= 0.00D+00
 Coeff-Com: -0.265D-05 0.317D-05-0.617D-07 0.933D-05 0.123D-03-0.457D-02
 Coeff-Com:  0.300D-01-0.613D-01-0.356D+00 0.139D+01
 Coeff:     -0.265D-05 0.317D-05-0.617D-07 0.933D-05 0.123D-03-0.457D-02
 Coeff:      0.300D-01-0.613D-01-0.356D+00 0.139D+01
 Gap=     0.131 Goal=   None    Shift=    0.000
 Gap=     0.127 Goal=   None    Shift=    0.000
 RMSDP=3.16D-08 MaxDP=4.07D-07 DE=-1.07D-12 OVMax= 6.08D-07

 Cycle  11  Pass 1  IDiag  1:
 E= -23.1885332097350     Delta-E=        0.000000000000 Rises=F Damp=F
 DIIS: error= 2.41D-08 at cycle  11 NSaved=  11.
 NSaved=11 IEnMin=11 EnMin= -23.1885332097350     IErMin=11 ErrMin= 2.41D-08
 ErrMax= 2.41D-08  0.00D+00 EMaxC= 1.00D-01 BMatC= 8.03D-15 BMatP= 1.47D-13
 IDIUse=1 WtCom= 1.00D+00 WtEn= 0.00D+00
 Coeff-Com:  0.552D-06-0.745D-06-0.149D-05 0.603D-06 0.627D-06 0.962D-03
 Coeff-Com: -0.975D-02 0.284D-01 0.514D-01-0.467D+00 0.140D+01
 Coeff:      0.552D-06-0.745D-06-0.149D-05 0.603D-06 0.627D-06 0.962D-03
 Coeff:     -0.975D-02 0.284D-01 0.514D-01-0.467D+00 0.140D+01
 Gap=     0.131 Goal=   None    Shift=    0.000
 Gap=     0.127 Goal=   None    Shift=    0.000
 RMSDP=8.45D-09 MaxDP=1.20D-07 DE=-1.92D-13 OVMax= 1.79D-07

 SCF Done:  E(UB3LYP) =  -23.1885332097     A.U. after   11 cycles
            NFock= 11  Conv=0.84D-08     -V/T= 2.0052
 <Sx>= 0.0000 <Sy>= 0.0000 <Sz>= 0.5000 <S**2>= 0.7505 S= 0.5003
 <L.S>= 0.000000000000E+00
 KE= 2.306883625388D+01 PE=-6.271164816389D+01 EE= 1.155406597609D+01
 Annihilation of the first spin contaminant:
 S**2 before annihilation     0.7505,   after     0.7500
 Leave Link  502 at Sat Mar 28 20:12:39 2026, MaxMem=    33554432 cpu:         0.0
 (Enter C:\G09W\l601.exe)
 Copying SCF densities to generalized density rwf, IOpCl= 1 IROHF=0.

 **********************************************************************

            Population analysis using the SCF density.

 **********************************************************************

 Orbital symmetries:
 Alpha Orbitals:
       Occupied  (A') (A') (A') (A') (A')
       Virtual   (A') (A") (A') (A") (A') (A') (A') (A") (A') (A')
                 (A') (A") (A') (A') (A') (A') (A')
 Beta  Orbitals:
       Occupied  (A') (A') (A') (A')
       Virtual   (A') (A') (A") (A') (A") (A') (A') (A') (A") (A')
                 (A') (A') (A") (A') (A') (A') (A') (A')
 The electronic state is 2-A'.
 Alpha  occ. eigenvalues --   -4.03687  -1.97596  -0.37201  -0.20550  -0.19657
 Alpha virt. eigenvalues --   -0.06582  -0.05564  -0.03669  -0.00373   0.00529
 Alpha virt. eigenvalues --    0.06690   0.11343   0.12194   0.12847   0.15067
 Alpha virt. eigenvalues --    0.25218   0.28634   0.29567   0.31029   0.46062
 Alpha virt. eigenvalues --    1.17063   1.19424
  Beta  occ. eigenvalues --   -4.02874  -1.97596  -0.35934  -0.19654
  Beta virt. eigenvalues --   -0.06919  -0.05179  -0.03470  -0.02924  -0.00316
  Beta virt. eigenvalues --    0.00918   0.06738   0.11378   0.12187   0.12920
  Beta virt. eigenvalues --    0.16468   0.25198   0.29649   0.30975   0.35475
  Beta virt. eigenvalues --    0.48106   1.17135   1.20977
          Condensed to atoms (all electrons):
               1          2          3          4
     1  Li   2.464112   0.378972   0.004991   0.000486
     2  H    0.378972   0.780211  -0.000040  -0.000001
     3  Be   0.004991  -0.000040   3.498900   0.405815
     4  H    0.000486  -0.000001   0.405815   0.676333
          Atomic-Atomic Spin Densities.
               1          2          3          4
     1  Li   0.000326   0.000014   0.003976  -0.000586
     2  H    0.000014   0.000254   0.000003   0.000000
     3  Be   0.003976   0.000003   0.929186  -0.011376
     4  H   -0.000586   0.000000  -0.011376   0.086169
 Mulliken charges and spin densities:
               1          2
     1  Li   0.151440   0.003731
     2  H   -0.159142   0.000271
     3  Be   0.090335   0.921790
     4  H   -0.082633   0.074208
 Sum of Mulliken charges =   0.00000   1.00000
 Mulliken charges and spin densities with hydrogens summed into heavy atoms:
               1          2
     1  Li  -0.007703   0.004002
     3  Be   0.007703   0.995998
 Electronic spatial extent (au):  <R**2>=            251.8821
 Charge=              0.0000 electrons
 Dipole moment (field-independent basis, Debye):
    X=              4.9629    Y=             -2.2571    Z=              0.0000  Tot=              5.4521
 Quadrupole moment (field-independent basis, Debye-Ang):
   XX=            -17.2533   YY=            -23.4974   ZZ=            -12.3940
   XY=             16.1781   XZ=              0.0000   YZ=              0.0000
 Traceless Quadrupole moment (field-independent basis, Debye-Ang):
   XX=              0.4616   YY=             -5.7825   ZZ=              5.3209
   XY=             16.1781   XZ=              0.0000   YZ=              0.0000
 Octapole moment (field-independent basis, Debye-Ang**2):
  XXX=              6.3227  YYY=            -56.8544  ZZZ=              0.0000  XYY=             39.1348
  XXY=              0.4225  XXZ=              0.0000  XZZ=              2.3251  YZZ=             -2.7022
  YYZ=              0.0000  XYZ=              0.0000
 Hexadecapole moment (field-independent basis, Debye-Ang**3):
 XXXX=            -66.6710 YYYY=           -751.6313 ZZZZ=            -29.6905 XXXY=             59.8410
 XXXZ=              0.0000 YYYX=            195.8320 YYYZ=              0.0000 ZZZX=              0.0000
 ZZZY=              0.0000 XXYY=           -139.1316 XXZZ=            -15.6834 YYZZ=            -98.3486
 XXYZ=              0.0000 YYXZ=              0.0000 ZZXY=             16.8323
 N-N= 4.900212724177D+00 E-N=-6.271164812806D+01  KE= 2.306883625388D+01
 Symmetry A'   KE= 2.306883625388D+01
 Symmetry A"   KE= 0.000000000000D+00
                          Isotropic Fermi Contact Couplings
        Atom                 a.u.       MegaHertz       Gauss      10(-4) cm-1
     1  Li(7)             -0.00008      -0.13188      -0.04706      -0.04399
     2  H(1)               0.00008       0.37484       0.13375       0.12503
     3  Be(9)              0.21567    -135.52412     -48.35838     -45.20598
     4  H(1)               0.03446     154.01154      54.95515      51.37272
 --------------------------------------------------------
       Center         ----  Spin Dipole Couplings  ----
                      3XX-RR        3YY-RR        3ZZ-RR
 --------------------------------------------------------
     1   Atom       -0.000927      0.001970     -0.001043
     2   Atom       -0.000408      0.001055     -0.000646
     3   Atom        0.098904     -0.038579     -0.060325
     4   Atom        0.020624     -0.007749     -0.012875
 --------------------------------------------------------
                        XY            XZ            YZ
 --------------------------------------------------------
     1   Atom       -0.000413      0.000000      0.000000
     2   Atom       -0.000581      0.000000      0.000000
     3   Atom       -0.058652      0.000000      0.000000
     4   Atom       -0.013062      0.000000      0.000000
 --------------------------------------------------------


 ---------------------------------------------------------------------------------
              Anisotropic Spin Dipole Couplings in Principal Axis System
 ---------------------------------------------------------------------------------

       Atom             a.u.   MegaHertz   Gauss  10(-4) cm-1        Axes

              Baa    -0.0010    -0.216    -0.077    -0.072  0.0000  0.0000  1.0000
     1 Li(7)  Bbb    -0.0010    -0.204    -0.073    -0.068  0.9904  0.1383  0.0000
              Bcc     0.0020     0.420     0.150     0.140 -0.1383  0.9904  0.0000
 
              Baa    -0.0006    -0.345    -0.123    -0.115  0.0000  0.0000  1.0000
     2 H(1)   Bbb    -0.0006    -0.326    -0.116    -0.109  0.9442  0.3293  0.0000
              Bcc     0.0013     0.671     0.239     0.224 -0.3293  0.9442  0.0000
 
              Baa    -0.0603     4.525     1.615     1.509  0.0000  0.0000  1.0000
     3 Be(9)  Bbb    -0.0602     4.516     1.611     1.506  0.3459  0.9383  0.0000
              Bcc     0.1205    -9.041    -3.226    -3.016  0.9383 -0.3459  0.0000
 
              Baa    -0.0129    -6.869    -2.451    -2.291  0.0000  0.0000  1.0000
     4 H(1)   Bbb    -0.0128    -6.854    -2.446    -2.286  0.3635  0.9316  0.0000
              Bcc     0.0257    13.724     4.897     4.578  0.9316 -0.3635  0.0000
 

 ---------------------------------------------------------------------------------

 No NMR shielding tensors so no spin-rotation constants.
 Leave Link  601 at Sat Mar 28 20:12:40 2026, MaxMem=    33554432 cpu:         1.0
 (Enter C:\G09W\l9999.exe)
 1|1|UNPC-INANI_LAP|SP|UB3LYP|3-21G|Be1H2Li1(2)|EMMAN|28-Mar-2026|0||#p
  b3lyp/3-21g||Title Card Required - Distancia +4.00A - Paso 20||0,2|Li
 ,0,4.64474019,1.33044279,0.|H,0,3.11474019,1.33044279,0.|Be,0,6.506952
 39,-3.29931381,0.|H,0,5.31695239,-3.29931381,0.||Version=IA32W-G09RevD
 .01|State=2-A'|HF=-23.1885332|S2=0.750545|S2-1=0.|S2A=0.75|RMSD=8.448e
 -009|Dipole=2.1428991,-0.0952432,0.|Quadrupole=-8.6318103,4.6758473,3.
 955963,10.285271,0.,0.|PG=CS [SG(Be1H2Li1)]||@


 MAN IS A SINGULAR CREATURE.  HE HAS A SET OF GIFTS
 WHICH MAKE HIM UNIQUE AMONG THE ANIMALS: SO THAT, 
 UNLIKE THEM, HE IS NOT A FIGURE IN THE LANDSCAPE --
 HE IS A SHAPER OF THE LANDSCAPE.

                       -- JACOB BRONOWSKI
 Job cpu time:       0 days  0 hours  0 minutes  2.0 seconds.
 File lengths (MBytes):  RWF=      5 Int=      0 D2E=      0 Chk=      1 Scr=      1
 Normal termination of Gaussian 09 at Sat Mar 28 20:12:40 2026.
