 Entering Link 1 = C:\G09W\l1.exe PID=      3932.
  
 Copyright (c) 1988,1990,1992,1993,1995,1998,2003,2009,2013,
            Gaussian, Inc.  All Rights Reserved.
  
 This is part of the Gaussian(R) 09 program.  It is based on
 the Gaussian(R) 03 system (copyright 2003, Gaussian, Inc.),
 the Gaussian(R) 98 system (copyright 1998, Gaussian, Inc.),
 the Gaussian(R) 94 system (copyright 1995, Gaussian, Inc.),
 the Gaussian 92(TM) system (copyright 1992, Gaussian, Inc.),
 the Gaussian 90(TM) system (copyright 1990, Gaussian, Inc.),
 the Gaussian 88(TM) system (copyright 1988, Gaussian, Inc.),
 the Gaussian 86(TM) system (copyright 1986, Carnegie Mellon
 University), and the Gaussian 82(TM) system (copyright 1983,
 Carnegie Mellon University). Gaussian is a federally registered
 trademark of Gaussian, Inc.
  
 This software contains proprietary and confidential information,
 including trade secrets, belonging to Gaussian, Inc.
  
 This software is provided under written license and may be
 used, copied, transmitted, or stored only in accord with that
 written license.
  
 The following legend is applicable only to US Government
 contracts under FAR:
  
                    RESTRICTED RIGHTS LEGEND
  
 Use, reproduction and disclosure by the US Government is
 subject to restrictions as set forth in subparagraphs (a)
 and (c) of the Commercial Computer Software - Restricted
 Rights clause in FAR 52.227-19.
  
 Gaussian, Inc.
 340 Quinnipiac St., Bldg. 40, Wallingford CT 06492
  
  
 ---------------------------------------------------------------
 Warning -- This program may not be used in any manner that
 competes with the business of Gaussian, Inc. or will provide
 assistance to any competitor of Gaussian, Inc.  The licensee
 of this program is prohibited from giving any competitor of
 Gaussian, Inc. access to this program.  By using this program,
 the user acknowledges that Gaussian, Inc. is engaged in the
 business of creating and licensing software in the field of
 computational chemistry and represents and warrants to the
 licensee that it is not a competitor of Gaussian, Inc. and that
 it will not use this program in any manner prohibited above.
 ---------------------------------------------------------------
  

 Cite this work as:
 Gaussian 09, Revision D.01,
 M. J. Frisch, G. W. Trucks, H. B. Schlegel, G. E. Scuseria, 
 M. A. Robb, J. R. Cheeseman, G. Scalmani, V. Barone, B. Mennucci, 
 G. A. Petersson, H. Nakatsuji, M. Caricato, X. Li, H. P. Hratchian, 
 A. F. Izmaylov, J. Bloino, G. Zheng, J. L. Sonnenberg, M. Hada, 
 M. Ehara, K. Toyota, R. Fukuda, J. Hasegawa, M. Ishida, T. Nakajima, 
 Y. Honda, O. Kitao, H. Nakai, T. Vreven, J. A. Montgomery, Jr., 
 J. E. Peralta, F. Ogliaro, M. Bearpark, J. J. Heyd, E. Brothers, 
 K. N. Kudin, V. N. Staroverov, T. Keith, R. Kobayashi, J. Normand, 
 K. Raghavachari, A. Rendell, J. C. Burant, S. S. Iyengar, J. Tomasi, 
 M. Cossi, N. Rega, J. M. Millam, M. Klene, J. E. Knox, J. B. Cross, 
 V. Bakken, C. Adamo, J. Jaramillo, R. Gomperts, R. E. Stratmann, 
 O. Yazyev, A. J. Austin, R. Cammi, C. Pomelli, J. W. Ochterski, 
 R. L. Martin, K. Morokuma, V. G. Zakrzewski, G. A. Voth, 
 P. Salvador, J. J. Dannenberg, S. Dapprich, A. D. Daniels, 
 O. Farkas, J. B. Foresman, J. V. Ortiz, J. Cioslowski, 
 and D. J. Fox, Gaussian, Inc., Wallingford CT, 2013.
 
 ******************************************
 Gaussian 09:  IA32W-G09RevD.01 24-Apr-2013
                28-Mar-2026 
 ******************************************
 %chk=C:\Users\emman\Escritorio\quimica-enlaces\molecula\bn.chk
 --------------
 #p b3lyp/3-21g
 --------------
 1/38=1/1;
 2/12=2,17=6,18=5,40=1/2;
 3/5=5,11=2,16=1,25=1,30=1,74=-5/1,2,3;
 4//1;
 5/5=2,38=5/2;
 6/7=2,8=2,9=2,10=2,28=1/1;
 99/5=1,9=1/99;
 Leave Link    1 at Sat Mar 28 20:12:31 2026, MaxMem=           0 cpu:         0.0
 (Enter C:\G09W\l101.exe)
 ------------------------------------------------
 Title Card Required - Distancia +2.80A - Paso 14
 ------------------------------------------------
 Symbolic Z-matrix:
 Charge =  0 Multiplicity = 2
 Li                    4.64474   1.33044   0. 
 H                     3.11474   1.33044   0. 
 Be                    6.02464  -2.20051   0. 
 H                     4.83464  -2.20051   0. 
 
 NAtoms=      4 NQM=        4 NQMF=       0 NMMI=      0 NMMIF=      0
                NMic=       0 NMicF=      0.
                    Isotopes and Nuclear Properties:
 (Nuclear quadrupole moments (NQMom) in fm**2, nuclear magnetic moments (NMagM)
  in nuclear magnetons)

  Atom         1           2           3           4
 IAtWgt=           7           1           9           1
 AtmWgt=   7.0160045   1.0078250   9.0121825   1.0078250
 NucSpn=           3           1           3           1
 AtZEff=   0.0000000   0.0000000   0.0000000   0.0000000
 NQMom=   -4.0100000   0.0000000   5.2880000   0.0000000
 NMagM=    3.2564240   2.7928460  -1.1779000   2.7928460
 AtZNuc=   3.0000000   1.0000000   4.0000000   1.0000000
 Leave Link  101 at Sat Mar 28 20:12:31 2026, MaxMem=    33554432 cpu:         0.0
 (Enter C:\G09W\l202.exe)
                          Input orientation:                          
 ---------------------------------------------------------------------
 Center     Atomic      Atomic             Coordinates (Angstroms)
 Number     Number       Type             X           Y           Z
 ---------------------------------------------------------------------
      1          3           0        4.644740    1.330443    0.000000
      2          1           0        3.114740    1.330443    0.000000
      3          4           0        6.024637   -2.200509    0.000000
      4          1           0        4.834637   -2.200509    0.000000
 ---------------------------------------------------------------------
                    Distance matrix (angstroms):
                    1          2          3          4
     1  Li   0.000000
     2  H    1.530000   0.000000
     3  Be   3.791007   4.575491   0.000000
     4  H    3.536055   3.927552   1.190000   0.000000
 Stoichiometry    BeH2Li(2)
 Framework group  CS[SG(BeH2Li)]
 Deg. of freedom     5
 Full point group                 CS      NOp   2
 Largest Abelian subgroup         CS      NOp   2
 Largest concise Abelian subgroup C1      NOp   1
                         Standard orientation:                         
 ---------------------------------------------------------------------
 Center     Atomic      Atomic             Coordinates (Angstroms)
 Number     Number       Type             X           Y           Z
 ---------------------------------------------------------------------
      1          3           0        0.281490    1.996109    0.000000
      2          1           0       -1.143555    2.553017    0.000000
      3          4           0        0.281490   -1.794899    0.000000
      4          1           0       -0.826878   -1.361748    0.000000
 ---------------------------------------------------------------------
 Rotational constants (GHZ):    177.9432597      7.7206606      7.3996041
 Leave Link  202 at Sat Mar 28 20:12:31 2026, MaxMem=    33554432 cpu:         0.0
 (Enter C:\G09W\l301.exe)
 Standard basis: 3-21G (6D, 7F)
 Ernie: Thresh=  0.10000D-02 Tol=  0.10000D-05 Strict=F.
 There are    18 symmetry adapted cartesian basis functions of A'  symmetry.
 There are     4 symmetry adapted cartesian basis functions of A"  symmetry.
 There are    18 symmetry adapted basis functions of A'  symmetry.
 There are     4 symmetry adapted basis functions of A"  symmetry.
    22 basis functions,    36 primitive gaussians,    22 cartesian basis functions
     5 alpha electrons        4 beta electrons
       nuclear repulsion energy         5.5377083805 Hartrees.
 IExCor=  402 DFT=T Ex+Corr=B3LYP ExCW=0 ScaHFX=  0.200000
 ScaDFX=  0.800000  0.720000  1.000000  0.810000 ScalE2=  1.000000  1.000000
 IRadAn=      0 IRanWt=     -1 IRanGd=            0 ICorTp=0 IEmpDi=  4
 NAtoms=    4 NActive=    4 NUniq=    4 SFac= 1.00D+00 NAtFMM=   60 NAOKFM=F Big=F
 Integral buffers will be    262144 words long.
 Raffenetti 2 integral format.
 Two-electron integral symmetry is turned on.
 Leave Link  301 at Sat Mar 28 20:12:31 2026, MaxMem=    33554432 cpu:         0.0
 (Enter C:\G09W\l302.exe)
 NPDir=0 NMtPBC=     1 NCelOv=     1 NCel=       1 NClECP=     1 NCelD=      1
         NCelK=      1 NCelE2=     1 NClLst=     1 CellRange=     0.0.
 One-electron integrals computed using PRISM.
 NBasis=    22 RedAO= T EigKep=  7.87D-02  NBF=    18     4
 NBsUse=    22 1.00D-06 EigRej= -1.00D+00 NBFU=    18     4
 Precomputing XC quadrature grid using
 IXCGrd= 4 IRadAn=           0 IRanWt=          -1 IRanGd=           0 AccXCQ= 0.00D+00.
 Generated NRdTot=       0 NPtTot=           0 NUsed=           0 NTot=          16
 NSgBfM=    22    22    22    22    22 MxSgAt=     4 MxSgA2=     4.
 Leave Link  302 at Sat Mar 28 20:12:31 2026, MaxMem=    33554432 cpu:         0.0
 (Enter C:\G09W\l303.exe)
 DipDrv:  MaxL=1.
 Leave Link  303 at Sat Mar 28 20:12:31 2026, MaxMem=    33554432 cpu:         0.0
 (Enter C:\G09W\l401.exe)
 ExpMin= 2.86D-02 ExpMax= 7.19D+01 ExpMxC= 7.19D+01 IAcc=3 IRadAn=         5 AccDes= 0.00D+00
 Harris functional with IExCor=  402 and IRadAn=       5 diagonalized for initial guess.
 HarFok:  IExCor=  402 AccDes= 0.00D+00 IRadAn=         5 IDoV= 1 UseB2=F ITyADJ=14
 ICtDFT=  3500011 ScaDFX=  1.000000  1.000000  1.000000  1.000000
 FoFCou: FMM=F IPFlag=           0 FMFlag=      100000 FMFlg1=           0
         NFxFlg=           0 DoJE=T BraDBF=F KetDBF=T FulRan=T
         wScrn=  0.000000 ICntrl=     500 IOpCl=  0 I1Cent=   200000004 NGrid=           0
         NMat0=    1 NMatS0=      1 NMatT0=    0 NMatD0=    1 NMtDS0=    0 NMtDT0=    0
 Petite list used in FoFCou.
 Harris En= -23.2206231003356    
 JPrj=0 DoOrth=F DoCkMO=F.
 Initial guess orbital symmetries:
 Alpha Orbitals:
       Occupied  (A') (A') (A') (A') (A')
       Virtual   (A') (A") (A') (A") (A') (A') (A') (A") (A') (A')
                 (A') (A") (A') (A') (A') (A') (A')
 Beta  Orbitals:
       Occupied  (A') (A') (A') (A')
       Virtual   (A') (A') (A") (A') (A") (A') (A') (A') (A") (A')
                 (A') (A') (A") (A') (A') (A') (A') (A')
 The electronic state of the initial guess is 2-A'.
 Initial guess <Sx>= 0.0000 <Sy>= 0.0000 <Sz>= 0.5000 <S**2>= 0.7500 S= 0.5000
 Leave Link  401 at Sat Mar 28 20:12:31 2026, MaxMem=    33554432 cpu:         0.0
 (Enter C:\G09W\l502.exe)
 UHF open shell SCF:
 Using DIIS extrapolation, IDIIS=  1040.
 Integral symmetry usage will be decided dynamically.
 Keep R1 and R2 ints in memory in symmetry-blocked form, NReq=914551.
 IVT=       20170 IEndB=       20170 NGot=    33554432 MDV=    33495625
 LenX=    33495625 LenY=    33494700
 Requested convergence on RMS density matrix=1.00D-08 within 128 cycles.
 Requested convergence on MAX density matrix=1.00D-06.
 Requested convergence on             energy=1.00D-06.
 No special actions if energy rises.
 FoFCou: FMM=F IPFlag=           0 FMFlag=           0 FMFlg1=           0
         NFxFlg=           0 DoJE=F BraDBF=F KetDBF=F FulRan=T
         wScrn=  0.000000 ICntrl=     600 IOpCl=  0 I1Cent=           0 NGrid=           0
         NMat0=    1 NMatS0=    253 NMatT0=    0 NMatD0=    1 NMtDS0=    0 NMtDT0=    0
 Petite list used in FoFCou.

 Cycle   1  Pass 1  IDiag  1:
 E= -23.1289950112283    
 DIIS: error= 4.49D-02 at cycle   1 NSaved=   1.
 NSaved= 1 IEnMin= 1 EnMin= -23.1289950112283     IErMin= 1 ErrMin= 4.49D-02
 ErrMax= 4.49D-02  0.00D+00 EMaxC= 1.00D-01 BMatC= 1.08D-01 BMatP= 1.08D-01
 IDIUse=3 WtCom= 5.51D-01 WtEn= 4.49D-01
 Coeff-Com:  0.100D+01
 Coeff-En:   0.100D+01
 Coeff:      0.100D+01
 Gap=     0.141 Goal=   None    Shift=    0.000
 Gap=    -0.015 Goal=   None    Shift=    0.000
 GapD=   -0.015 DampG=0.250 DampE=0.500 DampFc=0.2500 IDamp=-1.
 Damping current iteration by 2.50D-01
 RMSDP=2.28D-02 MaxDP=1.87D-01              OVMax= 4.95D-01

 Cycle   2  Pass 1  IDiag  1:
 E= -23.1465163551026     Delta-E=       -0.017521343874 Rises=F Damp=T
 DIIS: error= 2.44D-02 at cycle   2 NSaved=   2.
 NSaved= 2 IEnMin= 2 EnMin= -23.1465163551026     IErMin= 2 ErrMin= 2.44D-02
 ErrMax= 2.44D-02  0.00D+00 EMaxC= 1.00D-01 BMatC= 3.78D-02 BMatP= 1.08D-01
 IDIUse=3 WtCom= 7.56D-01 WtEn= 2.44D-01
 Coeff-Com: -0.138D+01 0.238D+01
 Coeff-En:   0.000D+00 0.100D+01
 Coeff:     -0.104D+01 0.204D+01
 Gap=     0.104 Goal=   None    Shift=    0.000
 Gap=     0.119 Goal=   None    Shift=    0.000
 RMSDP=8.61D-03 MaxDP=7.22D-02 DE=-1.75D-02 OVMax= 3.48D-01

 Cycle   3  Pass 1  IDiag  1:
 E= -23.1867002143241     Delta-E=       -0.040183859221 Rises=F Damp=F
 DIIS: error= 7.11D-03 at cycle   3 NSaved=   3.
 NSaved= 3 IEnMin= 3 EnMin= -23.1867002143241     IErMin= 3 ErrMin= 7.11D-03
 ErrMax= 7.11D-03  0.00D+00 EMaxC= 1.00D-01 BMatC= 1.73D-03 BMatP= 3.78D-02
 IDIUse=3 WtCom= 9.29D-01 WtEn= 7.11D-02
 Coeff-Com: -0.672D+00 0.110D+01 0.572D+00
 Coeff-En:   0.000D+00 0.000D+00 0.100D+01
 Coeff:     -0.624D+00 0.102D+01 0.603D+00
 Gap=     0.128 Goal=   None    Shift=    0.000
 Gap=     0.123 Goal=   None    Shift=    0.000
 RMSDP=1.23D-03 MaxDP=9.39D-03 DE=-4.02D-02 OVMax= 1.39D-02

 Cycle   4  Pass 1  IDiag  1:
 E= -23.1875924896038     Delta-E=       -0.000892275280 Rises=F Damp=F
 DIIS: error= 3.88D-03 at cycle   4 NSaved=   4.
 NSaved= 4 IEnMin= 4 EnMin= -23.1875924896038     IErMin= 4 ErrMin= 3.88D-03
 ErrMax= 3.88D-03  0.00D+00 EMaxC= 1.00D-01 BMatC= 4.06D-04 BMatP= 1.73D-03
 IDIUse=3 WtCom= 9.61D-01 WtEn= 3.88D-02
 Coeff-Com: -0.173D+00 0.211D+00-0.261D+00 0.122D+01
 Coeff-En:   0.000D+00 0.000D+00 0.000D+00 0.100D+01
 Coeff:     -0.166D+00 0.203D+00-0.251D+00 0.121D+01
 Gap=     0.117 Goal=   None    Shift=    0.000
 Gap=     0.114 Goal=   None    Shift=    0.000
 RMSDP=8.78D-04 MaxDP=9.51D-03 DE=-8.92D-04 OVMax= 1.44D-02

 Cycle   5  Pass 1  IDiag  1:
 E= -23.1878800411789     Delta-E=       -0.000287551575 Rises=F Damp=F
 DIIS: error= 7.89D-04 at cycle   5 NSaved=   5.
 NSaved= 5 IEnMin= 5 EnMin= -23.1878800411789     IErMin= 5 ErrMin= 7.89D-04
 ErrMax= 7.89D-04  0.00D+00 EMaxC= 1.00D-01 BMatC= 1.43D-05 BMatP= 4.06D-04
 IDIUse=3 WtCom= 9.92D-01 WtEn= 7.89D-03
 Coeff-Com:  0.104D-01-0.149D-01-0.216D-01-0.221D+00 0.125D+01
 Coeff-En:   0.000D+00 0.000D+00 0.000D+00 0.000D+00 0.100D+01
 Coeff:      0.103D-01-0.147D-01-0.214D-01-0.219D+00 0.125D+01
 Gap=     0.115 Goal=   None    Shift=    0.000
 Gap=     0.112 Goal=   None    Shift=    0.000
 RMSDP=2.34D-04 MaxDP=2.81D-03 DE=-2.88D-04 OVMax= 4.28D-03

 Cycle   6  Pass 1  IDiag  1:
 E= -23.1878919292119     Delta-E=       -0.000011888033 Rises=F Damp=F
 DIIS: error= 7.36D-05 at cycle   6 NSaved=   6.
 NSaved= 6 IEnMin= 6 EnMin= -23.1878919292119     IErMin= 6 ErrMin= 7.36D-05
 ErrMax= 7.36D-05  0.00D+00 EMaxC= 1.00D-01 BMatC= 9.86D-08 BMatP= 1.43D-05
 IDIUse=1 WtCom= 1.00D+00 WtEn= 0.00D+00
 Coeff-Com: -0.191D-02 0.328D-02 0.109D-01 0.667D-01-0.403D+00 0.132D+01
 Coeff:     -0.191D-02 0.328D-02 0.109D-01 0.667D-01-0.403D+00 0.132D+01
 Gap=     0.115 Goal=   None    Shift=    0.000
 Gap=     0.112 Goal=   None    Shift=    0.000
 RMSDP=3.06D-05 MaxDP=3.39D-04 DE=-1.19D-05 OVMax= 9.95D-04

 Cycle   7  Pass 1  IDiag  1:
 E= -23.1878921396634     Delta-E=       -0.000000210451 Rises=F Damp=F
 DIIS: error= 3.15D-05 at cycle   7 NSaved=   7.
 NSaved= 7 IEnMin= 7 EnMin= -23.1878921396634     IErMin= 7 ErrMin= 3.15D-05
 ErrMax= 3.15D-05  0.00D+00 EMaxC= 1.00D-01 BMatC= 1.54D-08 BMatP= 9.86D-08
 IDIUse=1 WtCom= 1.00D+00 WtEn= 0.00D+00
 Coeff-Com: -0.163D-02 0.222D-02-0.151D-02 0.471D-02-0.229D-01-0.359D+00
 Coeff-Com:  0.138D+01
 Coeff:     -0.163D-02 0.222D-02-0.151D-02 0.471D-02-0.229D-01-0.359D+00
 Coeff:      0.138D+01
 Gap=     0.115 Goal=   None    Shift=    0.000
 Gap=     0.112 Goal=   None    Shift=    0.000
 RMSDP=1.37D-05 MaxDP=1.62D-04 DE=-2.10D-07 OVMax= 3.42D-04

 Cycle   8  Pass 1  IDiag  1:
 E= -23.1878921716975     Delta-E=       -0.000000032034 Rises=F Damp=F
 DIIS: error= 8.25D-06 at cycle   8 NSaved=   8.
 NSaved= 8 IEnMin= 8 EnMin= -23.1878921716975     IErMin= 8 ErrMin= 8.25D-06
 ErrMax= 8.25D-06  0.00D+00 EMaxC= 1.00D-01 BMatC= 1.20D-09 BMatP= 1.54D-08
 IDIUse=1 WtCom= 1.00D+00 WtEn= 0.00D+00
 Coeff-Com: -0.273D-04 0.112D-03-0.465D-03-0.944D-02 0.440D-01-0.951D-01
 Coeff-Com: -0.137D+00 0.120D+01
 Coeff:     -0.273D-04 0.112D-03-0.465D-03-0.944D-02 0.440D-01-0.951D-01
 Coeff:     -0.137D+00 0.120D+01
 Gap=     0.115 Goal=   None    Shift=    0.000
 Gap=     0.112 Goal=   None    Shift=    0.000
 RMSDP=3.55D-06 MaxDP=4.08D-05 DE=-3.20D-08 OVMax= 1.05D-04

 Cycle   9  Pass 1  IDiag  1:
 E= -23.1878921737162     Delta-E=       -0.000000002019 Rises=F Damp=F
 DIIS: error= 8.52D-07 at cycle   9 NSaved=   9.
 NSaved= 9 IEnMin= 9 EnMin= -23.1878921737162     IErMin= 9 ErrMin= 8.52D-07
 ErrMax= 8.52D-07  0.00D+00 EMaxC= 1.00D-01 BMatC= 1.91D-11 BMatP= 1.20D-09
 IDIUse=1 WtCom= 1.00D+00 WtEn= 0.00D+00
 Coeff-Com: -0.139D-04 0.110D-04 0.166D-03 0.165D-02-0.796D-02 0.263D-01
 Coeff-Com: -0.885D-02-0.232D+00 0.122D+01
 Coeff:     -0.139D-04 0.110D-04 0.166D-03 0.165D-02-0.796D-02 0.263D-01
 Coeff:     -0.885D-02-0.232D+00 0.122D+01
 Gap=     0.115 Goal=   None    Shift=    0.000
 Gap=     0.112 Goal=   None    Shift=    0.000
 RMSDP=4.05D-07 MaxDP=4.14D-06 DE=-2.02D-09 OVMax= 9.71D-06

 Cycle  10  Pass 1  IDiag  1:
 E= -23.1878921737488     Delta-E=       -0.000000000033 Rises=F Damp=F
 DIIS: error= 1.77D-07 at cycle  10 NSaved=  10.
 NSaved=10 IEnMin=10 EnMin= -23.1878921737488     IErMin=10 ErrMin= 1.77D-07
 ErrMax= 1.77D-07  0.00D+00 EMaxC= 1.00D-01 BMatC= 8.35D-13 BMatP= 1.91D-11
 IDIUse=1 WtCom= 1.00D+00 WtEn= 0.00D+00
 Coeff-Com: -0.514D-05 0.826D-05-0.141D-04-0.291D-04 0.114D-03-0.157D-02
 Coeff-Com:  0.402D-02 0.761D-02-0.257D+00 0.125D+01
 Coeff:     -0.514D-05 0.826D-05-0.141D-04-0.291D-04 0.114D-03-0.157D-02
 Coeff:      0.402D-02 0.761D-02-0.257D+00 0.125D+01
 Gap=     0.115 Goal=   None    Shift=    0.000
 Gap=     0.112 Goal=   None    Shift=    0.000
 RMSDP=8.63D-08 MaxDP=7.89D-07 DE=-3.26D-11 OVMax= 1.62D-06

 Cycle  11  Pass 1  IDiag  1:
 E= -23.1878921737502     Delta-E=       -0.000000000001 Rises=F Damp=F
 DIIS: error= 4.14D-08 at cycle  11 NSaved=  11.
 NSaved=11 IEnMin=11 EnMin= -23.1878921737502     IErMin=11 ErrMin= 4.14D-08
 ErrMax= 4.14D-08  0.00D+00 EMaxC= 1.00D-01 BMatC= 5.71D-14 BMatP= 8.35D-13
 IDIUse=1 WtCom= 1.00D+00 WtEn= 0.00D+00
 Coeff-Com: -0.408D-06 0.978D-06-0.423D-05-0.586D-04 0.250D-03-0.600D-03
 Coeff-Com: -0.239D-03 0.697D-02-0.145D-01-0.121D+00 0.113D+01
 Coeff:     -0.408D-06 0.978D-06-0.423D-05-0.586D-04 0.250D-03-0.600D-03
 Coeff:     -0.239D-03 0.697D-02-0.145D-01-0.121D+00 0.113D+01
 Gap=     0.115 Goal=   None    Shift=    0.000
 Gap=     0.112 Goal=   None    Shift=    0.000
 RMSDP=1.73D-08 MaxDP=1.44D-07 DE=-1.41D-12 OVMax= 4.16D-07

 Cycle  12  Pass 1  IDiag  1:
 E= -23.1878921737502     Delta-E=        0.000000000000 Rises=F Damp=F
 DIIS: error= 5.39D-09 at cycle  12 NSaved=  12.
 NSaved=12 IEnMin=12 EnMin= -23.1878921737502     IErMin=12 ErrMin= 5.39D-09
 ErrMax= 5.39D-09  0.00D+00 EMaxC= 1.00D-01 BMatC= 1.14D-15 BMatP= 5.71D-14
 IDIUse=1 WtCom= 1.00D+00 WtEn= 0.00D+00
 Coeff-Com:  0.294D-06-0.510D-06 0.696D-06 0.626D-05-0.235D-04 0.108D-03
 Coeff-Com: -0.118D-03-0.101D-02 0.834D-02-0.507D-02-0.260D+00 0.126D+01
 Coeff:      0.294D-06-0.510D-06 0.696D-06 0.626D-05-0.235D-04 0.108D-03
 Coeff:     -0.118D-03-0.101D-02 0.834D-02-0.507D-02-0.260D+00 0.126D+01
 Gap=     0.115 Goal=   None    Shift=    0.000
 Gap=     0.112 Goal=   None    Shift=    0.000
 RMSDP=4.79D-09 MaxDP=5.46D-08 DE=-3.91D-14 OVMax= 1.46D-07

 SCF Done:  E(UB3LYP) =  -23.1878921738     A.U. after   12 cycles
            NFock= 12  Conv=0.48D-08     -V/T= 2.0052
 <Sx>= 0.0000 <Sy>= 0.0000 <Sz>= 0.5000 <S**2>= 0.7507 S= 0.5003
 <L.S>= 0.000000000000E+00
 KE= 2.306865210198D+01 PE=-6.395646908668D+01 EE= 1.216221643040D+01
 Annihilation of the first spin contaminant:
 S**2 before annihilation     0.7507,   after     0.7500
 Leave Link  502 at Sat Mar 28 20:12:32 2026, MaxMem=    33554432 cpu:         1.0
 (Enter C:\G09W\l601.exe)
 Copying SCF densities to generalized density rwf, IOpCl= 1 IROHF=0.

 **********************************************************************

            Population analysis using the SCF density.

 **********************************************************************

 Orbital symmetries:
 Alpha Orbitals:
       Occupied  (A') (A') (A') (A') (A')
       Virtual   (A') (A") (A') (A") (A') (A') (A') (A') (A") (A')
                 (A') (A") (A') (A') (A') (A') (A')
 Beta  Orbitals:
       Occupied  (A') (A') (A') (A')
       Virtual   (A') (A') (A") (A') (A") (A') (A') (A') (A') (A")
                 (A') (A') (A") (A') (A') (A') (A') (A')
 The electronic state is 2-A'.
 Alpha  occ. eigenvalues --   -4.04441  -1.97463  -0.37825  -0.21371  -0.19512
 Alpha virt. eigenvalues --   -0.07985  -0.06368  -0.02943   0.00127   0.02266
 Alpha virt. eigenvalues --    0.06743   0.11101   0.11964   0.12321   0.15909
 Alpha virt. eigenvalues --    0.25043   0.28579   0.29756   0.32132   0.49828
 Alpha virt. eigenvalues --    1.17912   1.19433
  Beta  occ. eigenvalues --   -4.03646  -1.97462  -0.36493  -0.19514
  Beta virt. eigenvalues --   -0.08344  -0.05957  -0.04450  -0.02378   0.00299
  Beta virt. eigenvalues --    0.02952   0.06873   0.11115   0.12026   0.12245
  Beta virt. eigenvalues --    0.17249   0.25231   0.29552   0.31617   0.35721
  Beta virt. eigenvalues --    0.51848   1.17949   1.21083
          Condensed to atoms (all electrons):
               1          2          3          4
     1  Li   2.464619   0.377574   0.015397  -0.002051
     2  H    0.377574   0.782262   0.000166  -0.000099
     3  Be   0.015397   0.000166   3.493441   0.407650
     4  H   -0.002051  -0.000099   0.407650   0.662405
          Atomic-Atomic Spin Densities.
               1          2          3          4
     1  Li   0.001456  -0.000226   0.014202  -0.001728
     2  H   -0.000226   0.000324   0.000123  -0.000001
     3  Be   0.014202   0.000123   0.903780  -0.009817
     4  H   -0.001728  -0.000001  -0.009817   0.089337
 Mulliken charges and spin densities:
               1          2
     1  Li   0.144461   0.013704
     2  H   -0.159903   0.000220
     3  Be   0.083347   0.908286
     4  H   -0.067905   0.077790
 Sum of Mulliken charges =   0.00000   1.00000
 Mulliken charges and spin densities with hydrogens summed into heavy atoms:
               1          2
     1  Li  -0.015442   0.013923
     3  Be   0.015442   0.986077
 Electronic spatial extent (au):  <R**2>=            164.6383
 Charge=              0.0000 electrons
 Dipole moment (field-independent basis, Debye):
    X=              4.8088    Y=             -2.5080    Z=              0.0000  Tot=              5.4236
 Quadrupole moment (field-independent basis, Debye-Ang):
   XX=            -17.3839   YY=            -19.8823   ZZ=            -12.4233
   XY=             12.6585   XZ=              0.0000   YZ=              0.0000
 Traceless Quadrupole moment (field-independent basis, Debye-Ang):
   XX=             -0.8208   YY=             -3.3191   ZZ=              4.1399
   XY=             12.6585   XZ=              0.0000   YZ=              0.0000
 Octapole moment (field-independent basis, Debye-Ang**2):
  XXX=              5.7151  YYY=            -37.6942  ZZZ=              0.0000  XYY=             23.6586
  XXY=             -0.1609  XXZ=              0.0000  XZZ=              2.1628  YZZ=             -2.5051
  YYZ=              0.0000  XYZ=              0.0000
 Hexadecapole moment (field-independent basis, Debye-Ang**3):
 XXXX=            -67.8794 YYYY=           -425.0158 ZZZZ=            -29.8436 XXXY=             47.3117
 XXXZ=              0.0000 YYYX=            107.4128 YYYZ=              0.0000 ZZZX=              0.0000
 ZZZY=              0.0000 XXYY=            -89.8643 XXZZ=            -15.9024 YYZZ=            -62.4908
 XXYZ=              0.0000 YYXZ=              0.0000 ZZXY=             13.2779
 N-N= 5.537708380544D+00 E-N=-6.395646907392D+01  KE= 2.306865210198D+01
 Symmetry A'   KE= 2.306865210198D+01
 Symmetry A"   KE= 0.000000000000D+00
                          Isotropic Fermi Contact Couplings
        Atom                 a.u.       MegaHertz       Gauss      10(-4) cm-1
     1  Li(7)              0.00005       0.08777       0.03132       0.02928
     2  H(1)               0.00004       0.16351       0.05834       0.05454
     3  Be(9)              0.20761    -130.46324     -46.55253     -43.51785
     4  H(1)               0.03595     160.68180      57.33526      53.59768
 --------------------------------------------------------
       Center         ----  Spin Dipole Couplings  ----
                      3XX-RR        3YY-RR        3ZZ-RR
 --------------------------------------------------------
     1   Atom       -0.001887      0.004246     -0.002359
     2   Atom       -0.000519      0.001765     -0.001246
     3   Atom        0.105356     -0.044201     -0.061155
     4   Atom        0.021084     -0.008168     -0.012916
 --------------------------------------------------------
                        XY            XZ            YZ
 --------------------------------------------------------
     1   Atom       -0.001319      0.000000      0.000000
     2   Atom       -0.001288      0.000000      0.000000
     3   Atom       -0.052117      0.000000      0.000000
     4   Atom       -0.012401      0.000000      0.000000
 --------------------------------------------------------


 ---------------------------------------------------------------------------------
              Anisotropic Spin Dipole Couplings in Principal Axis System
 ---------------------------------------------------------------------------------

       Atom             a.u.   MegaHertz   Gauss  10(-4) cm-1        Axes

              Baa    -0.0024    -0.489    -0.175    -0.163  0.0000  0.0000  1.0000
     1 Li(7)  Bbb    -0.0022    -0.448    -0.160    -0.149  0.9794  0.2017  0.0000
              Bcc     0.0045     0.937     0.334     0.313 -0.2017  0.9794  0.0000
 
              Baa    -0.0012    -0.665    -0.237    -0.222  0.0000  0.0000  1.0000
     2 H(1)   Bbb    -0.0011    -0.586    -0.209    -0.195  0.9120  0.4103  0.0000
              Bcc     0.0023     1.251     0.446     0.417 -0.4103  0.9120  0.0000
 
              Baa    -0.0612     4.587     1.637     1.530  0.0000  0.0000  1.0000
     3 Be(9)  Bbb    -0.0606     4.543     1.621     1.516  0.2997  0.9540  0.0000
              Bcc     0.1217    -9.131    -3.258    -3.046  0.9540 -0.2997  0.0000
 
              Baa    -0.0129    -6.892    -2.459    -2.299  0.0000  0.0000  1.0000
     4 H(1)   Bbb    -0.0127    -6.785    -2.421    -2.263  0.3444  0.9388  0.0000
              Bcc     0.0256    13.677     4.880     4.562  0.9388 -0.3444  0.0000
 

 ---------------------------------------------------------------------------------

 No NMR shielding tensors so no spin-rotation constants.
 Leave Link  601 at Sat Mar 28 20:12:32 2026, MaxMem=    33554432 cpu:         0.0
 (Enter C:\G09W\l9999.exe)
 1|1|UNPC-INANI_LAP|SP|UB3LYP|3-21G|Be1H2Li1(2)|EMMAN|28-Mar-2026|0||#p
  b3lyp/3-21g||Title Card Required - Distancia +2.80A - Paso 14||0,2|Li
 ,0,4.64474019,1.33044279,0.|H,0,3.11474019,1.33044279,0.|Be,0,6.024636
 72,-2.20050919,0.|H,0,4.83463672,-2.20050919,0.||Version=IA32W-G09RevD
 .01|State=2-A'|HF=-23.1878922|S2=0.750656|S2-1=0.|S2A=0.75|RMSD=4.789e
 -009|Dipole=2.1213181,-0.2303928,0.|Quadrupole=-7.2376169,4.1597281,3.
 0778887,7.5472153,0.,0.|PG=CS [SG(Be1H2Li1)]||@


 MAN IS A SINGULAR CREATURE.  HE HAS A SET OF GIFTS
 WHICH MAKE HIM UNIQUE AMONG THE ANIMALS: SO THAT, 
 UNLIKE THEM, HE IS NOT A FIGURE IN THE LANDSCAPE --
 HE IS A SHAPER OF THE LANDSCAPE.

                       -- JACOB BRONOWSKI
 Job cpu time:       0 days  0 hours  0 minutes  1.0 seconds.
 File lengths (MBytes):  RWF=      5 Int=      0 D2E=      0 Chk=      1 Scr=      1
 Normal termination of Gaussian 09 at Sat Mar 28 20:12:32 2026.
