 Entering Link 1 = C:\G09W\l1.exe PID=      1608.
  
 Copyright (c) 1988,1990,1992,1993,1995,1998,2003,2009,2013,
            Gaussian, Inc.  All Rights Reserved.
  
 This is part of the Gaussian(R) 09 program.  It is based on
 the Gaussian(R) 03 system (copyright 2003, Gaussian, Inc.),
 the Gaussian(R) 98 system (copyright 1998, Gaussian, Inc.),
 the Gaussian(R) 94 system (copyright 1995, Gaussian, Inc.),
 the Gaussian 92(TM) system (copyright 1992, Gaussian, Inc.),
 the Gaussian 90(TM) system (copyright 1990, Gaussian, Inc.),
 the Gaussian 88(TM) system (copyright 1988, Gaussian, Inc.),
 the Gaussian 86(TM) system (copyright 1986, Carnegie Mellon
 University), and the Gaussian 82(TM) system (copyright 1983,
 Carnegie Mellon University). Gaussian is a federally registered
 trademark of Gaussian, Inc.
  
 This software contains proprietary and confidential information,
 including trade secrets, belonging to Gaussian, Inc.
  
 This software is provided under written license and may be
 used, copied, transmitted, or stored only in accord with that
 written license.
  
 The following legend is applicable only to US Government
 contracts under FAR:
  
                    RESTRICTED RIGHTS LEGEND
  
 Use, reproduction and disclosure by the US Government is
 subject to restrictions as set forth in subparagraphs (a)
 and (c) of the Commercial Computer Software - Restricted
 Rights clause in FAR 52.227-19.
  
 Gaussian, Inc.
 340 Quinnipiac St., Bldg. 40, Wallingford CT 06492
  
  
 ---------------------------------------------------------------
 Warning -- This program may not be used in any manner that
 competes with the business of Gaussian, Inc. or will provide
 assistance to any competitor of Gaussian, Inc.  The licensee
 of this program is prohibited from giving any competitor of
 Gaussian, Inc. access to this program.  By using this program,
 the user acknowledges that Gaussian, Inc. is engaged in the
 business of creating and licensing software in the field of
 computational chemistry and represents and warrants to the
 licensee that it is not a competitor of Gaussian, Inc. and that
 it will not use this program in any manner prohibited above.
 ---------------------------------------------------------------
  

 Cite this work as:
 Gaussian 09, Revision D.01,
 M. J. Frisch, G. W. Trucks, H. B. Schlegel, G. E. Scuseria, 
 M. A. Robb, J. R. Cheeseman, G. Scalmani, V. Barone, B. Mennucci, 
 G. A. Petersson, H. Nakatsuji, M. Caricato, X. Li, H. P. Hratchian, 
 A. F. Izmaylov, J. Bloino, G. Zheng, J. L. Sonnenberg, M. Hada, 
 M. Ehara, K. Toyota, R. Fukuda, J. Hasegawa, M. Ishida, T. Nakajima, 
 Y. Honda, O. Kitao, H. Nakai, T. Vreven, J. A. Montgomery, Jr., 
 J. E. Peralta, F. Ogliaro, M. Bearpark, J. J. Heyd, E. Brothers, 
 K. N. Kudin, V. N. Staroverov, T. Keith, R. Kobayashi, J. Normand, 
 K. Raghavachari, A. Rendell, J. C. Burant, S. S. Iyengar, J. Tomasi, 
 M. Cossi, N. Rega, J. M. Millam, M. Klene, J. E. Knox, J. B. Cross, 
 V. Bakken, C. Adamo, J. Jaramillo, R. Gomperts, R. E. Stratmann, 
 O. Yazyev, A. J. Austin, R. Cammi, C. Pomelli, J. W. Ochterski, 
 R. L. Martin, K. Morokuma, V. G. Zakrzewski, G. A. Voth, 
 P. Salvador, J. J. Dannenberg, S. Dapprich, A. D. Daniels, 
 O. Farkas, J. B. Foresman, J. V. Ortiz, J. Cioslowski, 
 and D. J. Fox, Gaussian, Inc., Wallingford CT, 2013.
 
 ******************************************
 Gaussian 09:  IA32W-G09RevD.01 24-Apr-2013
                28-Mar-2026 
 ******************************************
 %chk=C:\Users\emman\Escritorio\quimica-enlaces\molecula\bn.chk
 --------------
 #p b3lyp/3-21g
 --------------
 1/38=1/1;
 2/12=2,17=6,18=5,40=1/2;
 3/5=5,11=2,16=1,25=1,30=1,74=-5/1,2,3;
 4//1;
 5/5=2,38=5/2;
 6/7=2,8=2,9=2,10=2,28=1/1;
 99/5=1,9=1/99;
 Leave Link    1 at Sat Mar 28 20:12:23 2026, MaxMem=           0 cpu:         0.0
 (Enter C:\G09W\l101.exe)
 -----------------------------------------------
 Title Card Required - Distancia +1.80A - Paso 9
 -----------------------------------------------
 Symbolic Z-matrix:
 Charge =  0 Multiplicity = 2
 Li                    4.64474   1.33044   0. 
 H                     3.11474   1.33044   0. 
 Be                    5.62271  -1.28484   0. 
 H                     4.43271  -1.28484   0. 
 
 NAtoms=      4 NQM=        4 NQMF=       0 NMMI=      0 NMMIF=      0
                NMic=       0 NMicF=      0.
                    Isotopes and Nuclear Properties:
 (Nuclear quadrupole moments (NQMom) in fm**2, nuclear magnetic moments (NMagM)
  in nuclear magnetons)

  Atom         1           2           3           4
 IAtWgt=           7           1           9           1
 AtmWgt=   7.0160045   1.0078250   9.0121825   1.0078250
 NucSpn=           3           1           3           1
 AtZEff=   0.0000000   0.0000000   0.0000000   0.0000000
 NQMom=   -4.0100000   0.0000000   5.2880000   0.0000000
 NMagM=    3.2564240   2.7928460  -1.1779000   2.7928460
 AtZNuc=   3.0000000   1.0000000   4.0000000   1.0000000
 Leave Link  101 at Sat Mar 28 20:12:23 2026, MaxMem=    33554432 cpu:         0.0
 (Enter C:\G09W\l202.exe)
                          Input orientation:                          
 ---------------------------------------------------------------------
 Center     Atomic      Atomic             Coordinates (Angstroms)
 Number     Number       Type             X           Y           Z
 ---------------------------------------------------------------------
      1          3           0        4.644740    1.330443    0.000000
      2          1           0        3.114740    1.330443    0.000000
      3          4           0        5.622707   -1.284839    0.000000
      4          1           0        4.432707   -1.284839    0.000000
 ---------------------------------------------------------------------
                    Distance matrix (angstroms):
                    1          2          3          4
     1  Li   0.000000
     2  H    1.530000   0.000000
     3  Be   2.792153   3.623478   0.000000
     4  H    2.623863   2.928606   1.190000   0.000000
 Stoichiometry    BeH2Li(2)
 Framework group  CS[SG(BeH2Li)]
 Deg. of freedom     5
 Full point group                 CS      NOp   2
 Largest Abelian subgroup         CS      NOp   2
 Largest concise Abelian subgroup C1      NOp   1
                         Standard orientation:                         
 ---------------------------------------------------------------------
 Center     Atomic      Atomic             Coordinates (Angstroms)
 Number     Number       Type             X           Y           Z
 ---------------------------------------------------------------------
      1          3           0        0.283078    1.445341    0.000000
      2          1           0       -1.150003    1.981232    0.000000
      3          4           0        0.283078   -1.346812    0.000000
      4          1           0       -0.831541   -0.930008    0.000000
 ---------------------------------------------------------------------
 Rotational constants (GHZ):    177.8841450     14.0781476     13.0456832
 Leave Link  202 at Sat Mar 28 20:12:23 2026, MaxMem=    33554432 cpu:         0.0
 (Enter C:\G09W\l301.exe)
 Standard basis: 3-21G (6D, 7F)
 Ernie: Thresh=  0.10000D-02 Tol=  0.10000D-05 Strict=F.
 There are    18 symmetry adapted cartesian basis functions of A'  symmetry.
 There are     4 symmetry adapted cartesian basis functions of A"  symmetry.
 There are    18 symmetry adapted basis functions of A'  symmetry.
 There are     4 symmetry adapted basis functions of A"  symmetry.
    22 basis functions,    36 primitive gaussians,    22 cartesian basis functions
     5 alpha electrons        4 beta electrons
       nuclear repulsion energy         6.4605191181 Hartrees.
 IExCor=  402 DFT=T Ex+Corr=B3LYP ExCW=0 ScaHFX=  0.200000
 ScaDFX=  0.800000  0.720000  1.000000  0.810000 ScalE2=  1.000000  1.000000
 IRadAn=      0 IRanWt=     -1 IRanGd=            0 ICorTp=0 IEmpDi=  4
 NAtoms=    4 NActive=    4 NUniq=    4 SFac= 1.00D+00 NAtFMM=   60 NAOKFM=F Big=F
 Integral buffers will be    262144 words long.
 Raffenetti 2 integral format.
 Two-electron integral symmetry is turned on.
 Leave Link  301 at Sat Mar 28 20:12:23 2026, MaxMem=    33554432 cpu:         0.0
 (Enter C:\G09W\l302.exe)
 NPDir=0 NMtPBC=     1 NCelOv=     1 NCel=       1 NClECP=     1 NCelD=      1
         NCelK=      1 NCelE2=     1 NClLst=     1 CellRange=     0.0.
 One-electron integrals computed using PRISM.
 NBasis=    22 RedAO= T EigKep=  5.29D-02  NBF=    18     4
 NBsUse=    22 1.00D-06 EigRej= -1.00D+00 NBFU=    18     4
 Precomputing XC quadrature grid using
 IXCGrd= 4 IRadAn=           0 IRanWt=          -1 IRanGd=           0 AccXCQ= 0.00D+00.
 Generated NRdTot=       0 NPtTot=           0 NUsed=           0 NTot=          16
 NSgBfM=    22    22    22    22    22 MxSgAt=     4 MxSgA2=     4.
 Leave Link  302 at Sat Mar 28 20:12:24 2026, MaxMem=    33554432 cpu:         1.0
 (Enter C:\G09W\l303.exe)
 DipDrv:  MaxL=1.
 Leave Link  303 at Sat Mar 28 20:12:24 2026, MaxMem=    33554432 cpu:         0.0
 (Enter C:\G09W\l401.exe)
 ExpMin= 2.86D-02 ExpMax= 7.19D+01 ExpMxC= 7.19D+01 IAcc=3 IRadAn=         5 AccDes= 0.00D+00
 Harris functional with IExCor=  402 and IRadAn=       5 diagonalized for initial guess.
 HarFok:  IExCor=  402 AccDes= 0.00D+00 IRadAn=         5 IDoV= 1 UseB2=F ITyADJ=14
 ICtDFT=  3500011 ScaDFX=  1.000000  1.000000  1.000000  1.000000
 FoFCou: FMM=F IPFlag=           0 FMFlag=      100000 FMFlg1=           0
         NFxFlg=           0 DoJE=T BraDBF=F KetDBF=T FulRan=T
         wScrn=  0.000000 ICntrl=     500 IOpCl=  0 I1Cent=   200000004 NGrid=           0
         NMat0=    1 NMatS0=      1 NMatT0=    0 NMatD0=    1 NMtDS0=    0 NMtDT0=    0
 Petite list used in FoFCou.
 Harris En= -23.2202906793796    
 JPrj=0 DoOrth=F DoCkMO=F.
 Initial guess orbital symmetries:
 Alpha Orbitals:
       Occupied  (A') (A') (A') (A') (A')
       Virtual   (A') (A") (A') (A") (A') (A') (A") (A') (A') (A')
                 (A') (A') (A") (A') (A') (A') (A')
 Beta  Orbitals:
       Occupied  (A') (A') (A') (A')
       Virtual   (A') (A') (A") (A') (A") (A') (A') (A") (A') (A')
                 (A') (A') (A') (A") (A') (A') (A') (A')
 The electronic state of the initial guess is 2-A'.
 Initial guess <Sx>= 0.0000 <Sy>= 0.0000 <Sz>= 0.5000 <S**2>= 0.7500 S= 0.5000
 Leave Link  401 at Sat Mar 28 20:12:24 2026, MaxMem=    33554432 cpu:         0.0
 (Enter C:\G09W\l502.exe)
 UHF open shell SCF:
 Using DIIS extrapolation, IDIIS=  1040.
 Integral symmetry usage will be decided dynamically.
 Keep R1 and R2 ints in memory in symmetry-blocked form, NReq=914551.
 IVT=       20170 IEndB=       20170 NGot=    33554432 MDV=    33495625
 LenX=    33495625 LenY=    33494700
 Requested convergence on RMS density matrix=1.00D-08 within 128 cycles.
 Requested convergence on MAX density matrix=1.00D-06.
 Requested convergence on             energy=1.00D-06.
 No special actions if energy rises.
 FoFCou: FMM=F IPFlag=           0 FMFlag=           0 FMFlg1=           0
         NFxFlg=           0 DoJE=F BraDBF=F KetDBF=F FulRan=T
         wScrn=  0.000000 ICntrl=     600 IOpCl=  0 I1Cent=           0 NGrid=           0
         NMat0=    1 NMatS0=    253 NMatT0=    0 NMatD0=    1 NMtDS0=    0 NMtDT0=    0
 Petite list used in FoFCou.

 Cycle   1  Pass 1  IDiag  1:
 E= -23.1201340323799    
 DIIS: error= 3.87D-02 at cycle   1 NSaved=   1.
 NSaved= 1 IEnMin= 1 EnMin= -23.1201340323799     IErMin= 1 ErrMin= 3.87D-02
 ErrMax= 3.87D-02  0.00D+00 EMaxC= 1.00D-01 BMatC= 1.12D-01 BMatP= 1.12D-01
 IDIUse=3 WtCom= 6.13D-01 WtEn= 3.87D-01
 Coeff-Com:  0.100D+01
 Coeff-En:   0.100D+01
 Coeff:      0.100D+01
 Gap=    -0.176 Goal=   None    Shift=    0.000
 Gap=    -0.055 Goal=   None    Shift=    0.000
 GapD=   -0.176 DampG=0.250 DampE=0.500 DampFc=0.2500 IDamp=-1.
 Damping current iteration by 2.50D-01
 RMSDP=3.67D-02 MaxDP=4.25D-01              OVMax= 9.83D-01

 Cycle   2  Pass 1  IDiag  1:
 E= -23.1086237946813     Delta-E=        0.011510237699 Rises=F Damp=T
 DIIS: error= 1.62D-02 at cycle   2 NSaved=   2.
 NSaved= 2 IEnMin= 1 EnMin= -23.1201340323799     IErMin= 2 ErrMin= 1.62D-02
 ErrMax= 1.62D-02  0.00D+00 EMaxC= 1.00D-01 BMatC= 2.59D-02 BMatP= 1.12D-01
 IDIUse=3 WtCom= 8.38D-01 WtEn= 1.62D-01
 Coeff-Com: -0.445D+00 0.144D+01
 Coeff-En:   0.615D+00 0.385D+00
 Coeff:     -0.273D+00 0.127D+01
 Gap=    -0.104 Goal=   None    Shift=    0.000
 Gap=    -0.100 Goal=   None    Shift=    0.000
 RMSDP=1.14D-02 MaxDP=8.69D-02 DE= 1.15D-02 OVMax= 9.28D-01

 Cycle   3  Pass 1  IDiag  1:
 E= -23.1472668962782     Delta-E=       -0.038643101597 Rises=F Damp=F
 DIIS: error= 2.66D-02 at cycle   3 NSaved=   3.
 NSaved= 3 IEnMin= 3 EnMin= -23.1472668962782     IErMin= 2 ErrMin= 1.62D-02
 ErrMax= 2.66D-02  0.00D+00 EMaxC= 1.00D-01 BMatC= 3.77D-02 BMatP= 2.59D-02
 IDIUse=2 WtCom= 0.00D+00 WtEn= 1.00D+00
 Coeff-En:   0.000D+00 0.114D+00 0.886D+00
 Coeff:      0.000D+00 0.114D+00 0.886D+00
 Gap=     0.132 Goal=   None    Shift=    0.000
 Gap=     0.045 Goal=   None    Shift=    0.000
 RMSDP=3.18D-02 MaxDP=4.04D-01 DE=-3.86D-02 OVMax= 9.30D-01

 Cycle   4  Pass 1  IDiag  1:
 E= -22.7895978999688     Delta-E=        0.357668996309 Rises=F Damp=F
 DIIS: error= 1.16D-01 at cycle   4 NSaved=   4.
 NSaved= 4 IEnMin= 3 EnMin= -23.1472668962782     IErMin= 2 ErrMin= 1.62D-02
 ErrMax= 1.16D-01  0.00D+00 EMaxC= 1.00D-01 BMatC= 3.49D-01 BMatP= 2.59D-02
 IDIUse=2 WtCom= 0.00D+00 WtEn= 1.00D+00
 Coeff-En:   0.000D+00 0.000D+00 0.897D+00 0.103D+00
 Coeff:      0.000D+00 0.000D+00 0.897D+00 0.103D+00
 Gap=     0.036 Goal=   None    Shift=    0.000
 Gap=    -0.012 Goal=   None    Shift=    0.000
 RMSDP=2.53D-02 MaxDP=3.62D-01 DE= 3.58D-01 OVMax= 8.64D-01

 Cycle   5  Pass 1  IDiag  1:
 E= -23.1796541579048     Delta-E=       -0.390056257936 Rises=F Damp=F
 DIIS: error= 9.83D-03 at cycle   5 NSaved=   5.
 NSaved= 5 IEnMin= 5 EnMin= -23.1796541579048     IErMin= 5 ErrMin= 9.83D-03
 ErrMax= 9.83D-03  0.00D+00 EMaxC= 1.00D-01 BMatC= 4.66D-03 BMatP= 2.59D-02
 IDIUse=3 WtCom= 9.02D-01 WtEn= 9.83D-02
 Coeff-Com: -0.396D+00 0.713D+00 0.359D+00-0.513D-01 0.374D+00
 Coeff-En:   0.000D+00 0.000D+00 0.000D+00 0.000D+00 0.100D+01
 Coeff:     -0.357D+00 0.643D+00 0.324D+00-0.463D-01 0.436D+00
 Gap=     0.132 Goal=   None    Shift=    0.000
 Gap=     0.120 Goal=   None    Shift=    0.000
 RMSDP=7.97D-03 MaxDP=6.49D-02 DE=-3.90D-01 OVMax= 1.87D-01

 Cycle   6  Pass 1  IDiag  1:
 E= -23.1776532606680     Delta-E=        0.002000897237 Rises=F Damp=F
 DIIS: error= 1.34D-02 at cycle   6 NSaved=   6.
 NSaved= 6 IEnMin= 5 EnMin= -23.1796541579048     IErMin= 5 ErrMin= 9.83D-03
 ErrMax= 1.34D-02  0.00D+00 EMaxC= 1.00D-01 BMatC= 7.82D-03 BMatP= 4.66D-03
 IDIUse=2 WtCom= 0.00D+00 WtEn= 1.00D+00
 Coeff-En:   0.000D+00 0.000D+00 0.000D+00 0.000D+00 0.615D+00 0.385D+00
 Coeff:      0.000D+00 0.000D+00 0.000D+00 0.000D+00 0.615D+00 0.385D+00
 Gap=     0.129 Goal=   None    Shift=    0.000
 Gap=     0.090 Goal=   None    Shift=    0.000
 RMSDP=4.81D-03 MaxDP=3.95D-02 DE= 2.00D-03 OVMax= 7.70D-02

 Cycle   7  Pass 1  IDiag  1:
 E= -23.1846975534295     Delta-E=       -0.007044292761 Rises=F Damp=F
 DIIS: error= 1.93D-03 at cycle   7 NSaved=   7.
 NSaved= 7 IEnMin= 7 EnMin= -23.1846975534295     IErMin= 7 ErrMin= 1.93D-03
 ErrMax= 1.93D-03  0.00D+00 EMaxC= 1.00D-01 BMatC= 1.55D-04 BMatP= 4.66D-03
 IDIUse=3 WtCom= 9.81D-01 WtEn= 1.93D-02
 Coeff-Com:  0.157D-01 0.889D-02 0.363D-01-0.301D-02-0.419D-01-0.322D+00
 Coeff-Com:  0.131D+01
 Coeff-En:   0.000D+00 0.000D+00 0.000D+00 0.000D+00 0.000D+00 0.000D+00
 Coeff-En:   0.100D+01
 Coeff:      0.154D-01 0.871D-02 0.356D-01-0.295D-02-0.411D-01-0.316D+00
 Coeff:      0.130D+01
 Gap=     0.095 Goal=   None    Shift=    0.000
 Gap=     0.089 Goal=   None    Shift=    0.000
 RMSDP=1.14D-03 MaxDP=7.35D-03 DE=-7.04D-03 OVMax= 2.78D-02

 Cycle   8  Pass 1  IDiag  1:
 E= -23.1849684251342     Delta-E=       -0.000270871705 Rises=F Damp=F
 DIIS: error= 4.18D-04 at cycle   8 NSaved=   8.
 NSaved= 8 IEnMin= 8 EnMin= -23.1849684251342     IErMin= 8 ErrMin= 4.18D-04
 ErrMax= 4.18D-04  0.00D+00 EMaxC= 1.00D-01 BMatC= 5.81D-06 BMatP= 1.55D-04
 IDIUse=3 WtCom= 9.96D-01 WtEn= 4.18D-03
 Coeff-Com: -0.198D-01 0.281D-01 0.163D-01-0.672D-03-0.300D-01 0.136D-01
 Coeff-Com: -0.225D+00 0.122D+01
 Coeff-En:   0.000D+00 0.000D+00 0.000D+00 0.000D+00 0.000D+00 0.000D+00
 Coeff-En:   0.000D+00 0.100D+01
 Coeff:     -0.197D-01 0.280D-01 0.162D-01-0.669D-03-0.299D-01 0.136D-01
 Coeff:     -0.225D+00 0.122D+01
 Gap=     0.097 Goal=   None    Shift=    0.000
 Gap=     0.091 Goal=   None    Shift=    0.000
 RMSDP=4.37D-04 MaxDP=2.80D-03 DE=-2.71D-04 OVMax= 1.08D-02

 Cycle   9  Pass 1  IDiag  1:
 E= -23.1849783862829     Delta-E=       -0.000009961149 Rises=F Damp=F
 DIIS: error= 5.92D-04 at cycle   9 NSaved=   9.
 NSaved= 9 IEnMin= 9 EnMin= -23.1849783862829     IErMin= 8 ErrMin= 4.18D-04
 ErrMax= 5.92D-04  0.00D+00 EMaxC= 1.00D-01 BMatC= 1.57D-05 BMatP= 5.81D-06
 IDIUse=3 WtCom= 9.96D-01 WtEn= 4.18D-03
 Coeff-Com: -0.690D-03 0.388D-02 0.116D-01-0.137D-03 0.139D-01-0.679D-01
 Coeff-Com: -0.299D-01-0.193D+00 0.126D+01
 Coeff-En:   0.000D+00 0.000D+00 0.000D+00 0.000D+00 0.000D+00 0.000D+00
 Coeff-En:   0.000D+00 0.000D+00 0.100D+01
 Coeff:     -0.687D-03 0.387D-02 0.116D-01-0.137D-03 0.139D-01-0.676D-01
 Coeff:     -0.298D-01-0.192D+00 0.126D+01
 Gap=     0.096 Goal=   None    Shift=    0.000
 Gap=     0.089 Goal=   None    Shift=    0.000
 RMSDP=2.49D-04 MaxDP=1.84D-03 DE=-9.96D-06 OVMax= 5.74D-03

 Cycle  10  Pass 1  IDiag  1:
 E= -23.1849955580221     Delta-E=       -0.000017171739 Rises=F Damp=F
 DIIS: error= 6.59D-05 at cycle  10 NSaved=  10.
 NSaved=10 IEnMin=10 EnMin= -23.1849955580221     IErMin=10 ErrMin= 6.59D-05
 ErrMax= 6.59D-05  0.00D+00 EMaxC= 1.00D-01 BMatC= 1.91D-07 BMatP= 5.81D-06
 IDIUse=1 WtCom= 1.00D+00 WtEn= 0.00D+00
 Coeff-Com:  0.500D-03-0.406D-03-0.393D-03 0.136D-04-0.948D-03 0.215D-02
 Coeff-Com:  0.125D-01-0.149D-01-0.235D+00 0.124D+01
 Coeff:      0.500D-03-0.406D-03-0.393D-03 0.136D-04-0.948D-03 0.215D-02
 Coeff:      0.125D-01-0.149D-01-0.235D+00 0.124D+01
 Gap=     0.096 Goal=   None    Shift=    0.000
 Gap=     0.089 Goal=   None    Shift=    0.000
 RMSDP=4.03D-05 MaxDP=3.42D-04 DE=-1.72D-05 OVMax= 9.18D-04

 Cycle  11  Pass 1  IDiag  1:
 E= -23.1849958270004     Delta-E=       -0.000000268978 Rises=F Damp=F
 DIIS: error= 1.31D-05 at cycle  11 NSaved=  11.
 NSaved=11 IEnMin=11 EnMin= -23.1849958270004     IErMin=11 ErrMin= 1.31D-05
 ErrMax= 1.31D-05  0.00D+00 EMaxC= 1.00D-01 BMatC= 6.32D-09 BMatP= 1.91D-07
 IDIUse=1 WtCom= 1.00D+00 WtEn= 0.00D+00
 Coeff-Com: -0.114D-03 0.438D-04-0.176D-03-0.198D-04 0.241D-03 0.133D-02
 Coeff-Com: -0.341D-02 0.302D-02 0.502D-01-0.283D+00 0.123D+01
 Coeff:     -0.114D-03 0.438D-04-0.176D-03-0.198D-04 0.241D-03 0.133D-02
 Coeff:     -0.341D-02 0.302D-02 0.502D-01-0.283D+00 0.123D+01
 Gap=     0.096 Goal=   None    Shift=    0.000
 Gap=     0.089 Goal=   None    Shift=    0.000
 RMSDP=5.28D-06 MaxDP=5.59D-05 DE=-2.69D-07 OVMax= 9.74D-05

 Cycle  12  Pass 1  IDiag  1:
 E= -23.1849958328441     Delta-E=       -0.000000005844 Rises=F Damp=F
 DIIS: error= 1.63D-06 at cycle  12 NSaved=  12.
 NSaved=12 IEnMin=12 EnMin= -23.1849958328441     IErMin=12 ErrMin= 1.63D-06
 ErrMax= 1.63D-06  0.00D+00 EMaxC= 1.00D-01 BMatC= 6.58D-11 BMatP= 6.32D-09
 IDIUse=1 WtCom= 1.00D+00 WtEn= 0.00D+00
 Coeff-Com:  0.191D-04 0.784D-05 0.435D-04-0.515D-05 0.238D-04-0.406D-03
 Coeff-Com:  0.947D-03-0.130D-02-0.611D-02 0.246D-01-0.265D+00 0.125D+01
 Coeff:      0.191D-04 0.784D-05 0.435D-04-0.515D-05 0.238D-04-0.406D-03
 Coeff:      0.947D-03-0.130D-02-0.611D-02 0.246D-01-0.265D+00 0.125D+01
 Gap=     0.096 Goal=   None    Shift=    0.000
 Gap=     0.089 Goal=   None    Shift=    0.000
 RMSDP=7.57D-07 MaxDP=8.45D-06 DE=-5.84D-09 OVMax= 2.03D-05

 Cycle  13  Pass 1  IDiag  1:
 E= -23.1849958329759     Delta-E=       -0.000000000132 Rises=F Damp=F
 DIIS: error= 3.95D-07 at cycle  13 NSaved=  13.
 NSaved=13 IEnMin=13 EnMin= -23.1849958329759     IErMin=13 ErrMin= 3.95D-07
 ErrMax= 3.95D-07  0.00D+00 EMaxC= 1.00D-01 BMatC= 6.45D-12 BMatP= 6.58D-11
 IDIUse=1 WtCom= 1.00D+00 WtEn= 0.00D+00
 Coeff-Com: -0.982D-05 0.930D-05 0.184D-05-0.138D-05-0.151D-04 0.509D-04
 Coeff-Com: -0.910D-04 0.528D-03-0.667D-03 0.597D-02 0.119D-01-0.473D+00
 Coeff-Com:  0.145D+01
 Coeff:     -0.982D-05 0.930D-05 0.184D-05-0.138D-05-0.151D-04 0.509D-04
 Coeff:     -0.910D-04 0.528D-03-0.667D-03 0.597D-02 0.119D-01-0.473D+00
 Coeff:      0.145D+01
 Gap=     0.096 Goal=   None    Shift=    0.000
 Gap=     0.089 Goal=   None    Shift=    0.000
 RMSDP=3.55D-07 MaxDP=3.32D-06 DE=-1.32D-10 OVMax= 1.14D-05

 Cycle  14  Pass 1  IDiag  1:
 E= -23.1849958329969     Delta-E=       -0.000000000021 Rises=F Damp=F
 DIIS: error= 2.67D-07 at cycle  14 NSaved=  14.
 NSaved=14 IEnMin=14 EnMin= -23.1849958329969     IErMin=14 ErrMin= 2.67D-07
 ErrMax= 2.67D-07  0.00D+00 EMaxC= 1.00D-01 BMatC= 1.68D-12 BMatP= 6.45D-12
 IDIUse=1 WtCom= 1.00D+00 WtEn= 0.00D+00
 Coeff-Com: -0.281D-05 0.449D-05 0.671D-06-0.872D-06 0.154D-04 0.983D-05
 Coeff-Com: -0.957D-04-0.629D-04 0.174D-02-0.101D-01 0.411D-01 0.281D-01
 Coeff-Com: -0.583D+00 0.152D+01
 Coeff:     -0.281D-05 0.449D-05 0.671D-06-0.872D-06 0.154D-04 0.983D-05
 Coeff:     -0.957D-04-0.629D-04 0.174D-02-0.101D-01 0.411D-01 0.281D-01
 Coeff:     -0.583D+00 0.152D+01
 Gap=     0.096 Goal=   None    Shift=    0.000
 Gap=     0.089 Goal=   None    Shift=    0.000
 RMSDP=1.55D-07 MaxDP=1.54D-06 DE=-2.11D-11 OVMax= 4.59D-06

 Cycle  15  Pass 1  IDiag  1:
 E= -23.1849958330006     Delta-E=       -0.000000000004 Rises=F Damp=F
 DIIS: error= 8.75D-08 at cycle  15 NSaved=  15.
 NSaved=15 IEnMin=15 EnMin= -23.1849958330006     IErMin=15 ErrMin= 8.75D-08
 ErrMax= 8.75D-08  0.00D+00 EMaxC= 1.00D-01 BMatC= 2.59D-13 BMatP= 1.68D-12
 IDIUse=1 WtCom= 1.00D+00 WtEn= 0.00D+00
 Coeff-Com: -0.481D-06 0.316D-06-0.135D-05-0.577D-08-0.908D-06 0.724D-05
 Coeff-Com:  0.383D-06 0.374D-04-0.606D-04-0.694D-03 0.411D-02 0.668D-02
 Coeff-Com: -0.595D-01-0.819D-01 0.113D+01
 Coeff:     -0.481D-06 0.316D-06-0.135D-05-0.577D-08-0.908D-06 0.724D-05
 Coeff:      0.383D-06 0.374D-04-0.606D-04-0.694D-03 0.411D-02 0.668D-02
 Coeff:     -0.595D-01-0.819D-01 0.113D+01
 Gap=     0.096 Goal=   None    Shift=    0.000
 Gap=     0.089 Goal=   None    Shift=    0.000
 RMSDP=4.23D-08 MaxDP=4.58D-07 DE=-3.71D-12 OVMax= 1.44D-06

 Cycle  16  Pass 1  IDiag  1:
 E= -23.1849958330010     Delta-E=        0.000000000000 Rises=F Damp=F
 DIIS: error= 7.57D-09 at cycle  16 NSaved=  16.
 NSaved=16 IEnMin=16 EnMin= -23.1849958330010     IErMin=16 ErrMin= 7.57D-09
 ErrMax= 7.57D-09  0.00D+00 EMaxC= 1.00D-01 BMatC= 2.34D-15 BMatP= 2.59D-13
 IDIUse=1 WtCom= 1.00D+00 WtEn= 0.00D+00
 Large coefficients: NSaved= 16 BigCof=    0.00 CofMax=   10.00 Det=-3.58D-15
 Inversion failed.  Reducing to 15 matrices.
 Coeff-Com: -0.560D-07 0.464D-07 0.610D-09-0.369D-06 0.538D-06-0.179D-05
 Coeff-Com:  0.538D-05-0.116D-04 0.152D-03-0.686D-03-0.345D-02 0.227D-01
 Coeff-Com: -0.133D-01-0.268D+00 0.126D+01
 Coeff:     -0.560D-07 0.464D-07 0.610D-09-0.369D-06 0.538D-06-0.179D-05
 Coeff:      0.538D-05-0.116D-04 0.152D-03-0.686D-03-0.345D-02 0.227D-01
 Coeff:     -0.133D-01-0.268D+00 0.126D+01
 Gap=     0.096 Goal=   None    Shift=    0.000
 Gap=     0.089 Goal=   None    Shift=    0.000
 RMSDP=6.02D-09 MaxDP=3.44D-08 DE=-3.91D-13 OVMax= 2.49D-07

 SCF Done:  E(UB3LYP) =  -23.1849958330     A.U. after   16 cycles
            NFock= 16  Conv=0.60D-08     -V/T= 2.0040
 <Sx>= 0.0000 <Sy>= 0.0000 <Sz>= 0.5000 <S**2>= 0.7515 S= 0.5007
 <L.S>= 0.000000000000E+00
 KE= 2.309273472542D+01 PE=-6.578435576256D+01 EE= 1.304610608600D+01
 Annihilation of the first spin contaminant:
 S**2 before annihilation     0.7515,   after     0.7500
 Leave Link  502 at Sat Mar 28 20:12:25 2026, MaxMem=    33554432 cpu:         1.0
 (Enter C:\G09W\l601.exe)
 Copying SCF densities to generalized density rwf, IOpCl= 1 IROHF=0.

 **********************************************************************

            Population analysis using the SCF density.

 **********************************************************************

 Orbital symmetries:
 Alpha Orbitals:
       Occupied  (A') (A') (A') (A') (A')
       Virtual   (A') (A") (A') (A") (A') (A') (A') (A") (A') (A')
                 (A') (A') (A") (A') (A') (A') (A')
 Beta  Orbitals:
       Occupied  (A') (A') (A') (A')
       Virtual   (A') (A') (A") (A') (A") (A') (A') (A') (A") (A')
                 (A') (A') (A') (A") (A') (A') (A') (A')
 The electronic state is 2-A'.
 Alpha  occ. eigenvalues --   -4.05482  -1.96830  -0.39018  -0.22769  -0.18950
 Alpha virt. eigenvalues --   -0.09387  -0.07616  -0.02138   0.01281   0.03695
 Alpha virt. eigenvalues --    0.07084   0.10834   0.12211   0.13657   0.18442
 Alpha virt. eigenvalues --    0.25835   0.27894   0.28823   0.32957   0.57260
 Alpha virt. eigenvalues --    1.16707   1.21016
  Beta  occ. eigenvalues --   -4.04722  -1.96792  -0.37504  -0.19058
  Beta virt. eigenvalues --   -0.10142  -0.07118  -0.05855  -0.01471   0.01565
  Beta virt. eigenvalues --    0.04515   0.07160   0.11109   0.12079   0.14482
  Beta virt. eigenvalues --    0.19651   0.26101   0.29139   0.29701   0.36247
  Beta virt. eigenvalues --    0.59499   1.17303   1.22141
          Condensed to atoms (all electrons):
               1          2          3          4
     1  Li   2.475084   0.375733   0.025144  -0.003563
     2  H    0.375733   0.781345  -0.000181  -0.001541
     3  Be   0.025144  -0.000181   3.507673   0.406276
     4  H   -0.003563  -0.001541   0.406276   0.632162
          Atomic-Atomic Spin Densities.
               1          2          3          4
     1  Li   0.007626  -0.003210   0.034425  -0.004666
     2  H   -0.003210  -0.004685   0.001898  -0.000351
     3  Be   0.034425   0.001898   0.857755  -0.007346
     4  H   -0.004666  -0.000351  -0.007346   0.097806
 Mulliken charges and spin densities:
               1          2
     1  Li   0.127602   0.034175
     2  H   -0.155355  -0.006349
     3  Be   0.061088   0.886732
     4  H   -0.033335   0.085442
 Sum of Mulliken charges =   0.00000   1.00000
 Mulliken charges and spin densities with hydrogens summed into heavy atoms:
               1          2
     1  Li  -0.027753   0.027826
     3  Be   0.027753   0.972174
 Electronic spatial extent (au):  <R**2>=            109.1727
 Charge=              0.0000 electrons
 Dipole moment (field-independent basis, Debye):
    X=              4.5176    Y=             -3.0364    Z=              0.0000  Tot=              5.4432
 Quadrupole moment (field-independent basis, Debye-Ang):
   XX=            -17.3435   YY=            -16.8678   ZZ=            -12.3018
   XY=              9.3887   XZ=              0.0000   YZ=              0.0000
 Traceless Quadrupole moment (field-independent basis, Debye-Ang):
   XX=             -1.8391   YY=             -1.3635   ZZ=              3.2026
   XY=              9.3887   XZ=              0.0000   YZ=              0.0000
 Octapole moment (field-independent basis, Debye-Ang**2):
  XXX=              4.9746  YYY=            -27.1403  ZZZ=              0.0000  XYY=             15.0664
  XXY=             -1.4186  XXZ=              0.0000  XZZ=              1.9987  YZZ=             -2.7294
  YYZ=              0.0000  XYZ=              0.0000
 Hexadecapole moment (field-independent basis, Debye-Ang**3):
 XXXX=            -68.1104 YYYY=           -237.6636 ZZZZ=            -28.9915 XXXY=             36.0925
 XXXZ=              0.0000 YYYX=             58.4550 YYYZ=              0.0000 ZZZX=              0.0000
 ZZZY=              0.0000 XXYY=            -57.5671 XXZZ=            -15.7948 YYZZ=            -39.2894
 XXYZ=              0.0000 YYXZ=              0.0000 ZZXY=             10.1257
 N-N= 6.460519118141D+00 E-N=-6.578435578017D+01  KE= 2.309273472542D+01
 Symmetry A'   KE= 2.309273472542D+01
 Symmetry A"   KE= 0.000000000000D+00
                          Isotropic Fermi Contact Couplings
        Atom                 a.u.       MegaHertz       Gauss      10(-4) cm-1
     1  Li(7)              0.00772      13.41593       4.78714       4.47507
     2  H(1)              -0.00244     -10.91013      -3.89300      -3.63923
     3  Be(9)              0.19037    -119.63113     -42.68736     -39.90465
     4  H(1)               0.03951     176.61009      63.01887      58.91078
 --------------------------------------------------------
       Center         ----  Spin Dipole Couplings  ----
                      3XX-RR        3YY-RR        3ZZ-RR
 --------------------------------------------------------
     1   Atom       -0.004133      0.009482     -0.005349
     2   Atom       -0.000454      0.002992     -0.002539
     3   Atom        0.117754     -0.053948     -0.063806
     4   Atom        0.021578     -0.008282     -0.013296
 --------------------------------------------------------
                        XY            XZ            YZ
 --------------------------------------------------------
     1   Atom       -0.004100      0.000000      0.000000
     2   Atom       -0.003051      0.000000      0.000000
     3   Atom       -0.033810      0.000000      0.000000
     4   Atom       -0.011317      0.000000      0.000000
 --------------------------------------------------------


 ---------------------------------------------------------------------------------
              Anisotropic Spin Dipole Couplings in Principal Axis System
 ---------------------------------------------------------------------------------

       Atom             a.u.   MegaHertz   Gauss  10(-4) cm-1        Axes

              Baa    -0.0053    -1.109    -0.396    -0.370  0.0000  0.0000  1.0000
     1 Li(7)  Bbb    -0.0053    -1.093    -0.390    -0.365  0.9635  0.2678  0.0000
              Bcc     0.0106     2.203     0.786     0.735 -0.2678  0.9635  0.0000
 
              Baa    -0.0025    -1.354    -0.483    -0.452  0.0000  0.0000  1.0000
     2 H(1)   Bbb    -0.0022    -1.192    -0.425    -0.398  0.8636  0.5042  0.0000
              Bcc     0.0048     2.547     0.909     0.850 -0.5042  0.8636  0.0000
 
              Baa    -0.0638     4.786     1.708     1.596  0.0000  0.0000  1.0000
     3 Be(9)  Bbb    -0.0604     4.528     1.616     1.510  0.1865  0.9825  0.0000
              Bcc     0.1242    -9.314    -3.324    -3.107  0.9825 -0.1865  0.0000
 
              Baa    -0.0133    -7.094    -2.531    -2.366  0.0000  0.0000  1.0000
     4 H(1)   Bbb    -0.0121    -6.449    -2.301    -2.151  0.3186  0.9479  0.0000
              Bcc     0.0254    13.543     4.832     4.517  0.9479 -0.3186  0.0000
 

 ---------------------------------------------------------------------------------

 No NMR shielding tensors so no spin-rotation constants.
 Leave Link  601 at Sat Mar 28 20:12:25 2026, MaxMem=    33554432 cpu:         0.0
 (Enter C:\G09W\l9999.exe)
 1|1|UNPC-INANI_LAP|SP|UB3LYP|3-21G|Be1H2Li1(2)|EMMAN|28-Mar-2026|0||#p
  b3lyp/3-21g||Title Card Required - Distancia +1.80A - Paso 9||0,2|Li,
 0,4.64474019,1.33044279,0.|H,0,3.11474019,1.33044279,0.|Be,0,5.6227069
 9,-1.28483867,0.|H,0,4.43270699,-1.28483867,0.||Version=IA32W-G09RevD.
 01|State=2-A'|HF=-23.1849958|S2=0.751471|S2-1=0.|S2A=0.750001|RMSD=6.0
 21e-009|Dipole=2.0831908,-0.4964165,0.|Quadrupole=-5.9039608,3.5229193
 ,2.3810415,5.1515744,0.,0.|PG=CS [SG(Be1H2Li1)]||@


 MAN IS A SINGULAR CREATURE.  HE HAS A SET OF GIFTS
 WHICH MAKE HIM UNIQUE AMONG THE ANIMALS: SO THAT, 
 UNLIKE THEM, HE IS NOT A FIGURE IN THE LANDSCAPE --
 HE IS A SHAPER OF THE LANDSCAPE.

                       -- JACOB BRONOWSKI
 Job cpu time:       0 days  0 hours  0 minutes  2.0 seconds.
 File lengths (MBytes):  RWF=      5 Int=      0 D2E=      0 Chk=      1 Scr=      1
 Normal termination of Gaussian 09 at Sat Mar 28 20:12:25 2026.
