 Entering Link 1 = C:\G09W\l1.exe PID=      1804.
  
 Copyright (c) 1988,1990,1992,1993,1995,1998,2003,2009,2013,
            Gaussian, Inc.  All Rights Reserved.
  
 This is part of the Gaussian(R) 09 program.  It is based on
 the Gaussian(R) 03 system (copyright 2003, Gaussian, Inc.),
 the Gaussian(R) 98 system (copyright 1998, Gaussian, Inc.),
 the Gaussian(R) 94 system (copyright 1995, Gaussian, Inc.),
 the Gaussian 92(TM) system (copyright 1992, Gaussian, Inc.),
 the Gaussian 90(TM) system (copyright 1990, Gaussian, Inc.),
 the Gaussian 88(TM) system (copyright 1988, Gaussian, Inc.),
 the Gaussian 86(TM) system (copyright 1986, Carnegie Mellon
 University), and the Gaussian 82(TM) system (copyright 1983,
 Carnegie Mellon University). Gaussian is a federally registered
 trademark of Gaussian, Inc.
  
 This software contains proprietary and confidential information,
 including trade secrets, belonging to Gaussian, Inc.
  
 This software is provided under written license and may be
 used, copied, transmitted, or stored only in accord with that
 written license.
  
 The following legend is applicable only to US Government
 contracts under FAR:
  
                    RESTRICTED RIGHTS LEGEND
  
 Use, reproduction and disclosure by the US Government is
 subject to restrictions as set forth in subparagraphs (a)
 and (c) of the Commercial Computer Software - Restricted
 Rights clause in FAR 52.227-19.
  
 Gaussian, Inc.
 340 Quinnipiac St., Bldg. 40, Wallingford CT 06492
  
  
 ---------------------------------------------------------------
 Warning -- This program may not be used in any manner that
 competes with the business of Gaussian, Inc. or will provide
 assistance to any competitor of Gaussian, Inc.  The licensee
 of this program is prohibited from giving any competitor of
 Gaussian, Inc. access to this program.  By using this program,
 the user acknowledges that Gaussian, Inc. is engaged in the
 business of creating and licensing software in the field of
 computational chemistry and represents and warrants to the
 licensee that it is not a competitor of Gaussian, Inc. and that
 it will not use this program in any manner prohibited above.
 ---------------------------------------------------------------
  

 Cite this work as:
 Gaussian 09, Revision D.01,
 M. J. Frisch, G. W. Trucks, H. B. Schlegel, G. E. Scuseria, 
 M. A. Robb, J. R. Cheeseman, G. Scalmani, V. Barone, B. Mennucci, 
 G. A. Petersson, H. Nakatsuji, M. Caricato, X. Li, H. P. Hratchian, 
 A. F. Izmaylov, J. Bloino, G. Zheng, J. L. Sonnenberg, M. Hada, 
 M. Ehara, K. Toyota, R. Fukuda, J. Hasegawa, M. Ishida, T. Nakajima, 
 Y. Honda, O. Kitao, H. Nakai, T. Vreven, J. A. Montgomery, Jr., 
 J. E. Peralta, F. Ogliaro, M. Bearpark, J. J. Heyd, E. Brothers, 
 K. N. Kudin, V. N. Staroverov, T. Keith, R. Kobayashi, J. Normand, 
 K. Raghavachari, A. Rendell, J. C. Burant, S. S. Iyengar, J. Tomasi, 
 M. Cossi, N. Rega, J. M. Millam, M. Klene, J. E. Knox, J. B. Cross, 
 V. Bakken, C. Adamo, J. Jaramillo, R. Gomperts, R. E. Stratmann, 
 O. Yazyev, A. J. Austin, R. Cammi, C. Pomelli, J. W. Ochterski, 
 R. L. Martin, K. Morokuma, V. G. Zakrzewski, G. A. Voth, 
 P. Salvador, J. J. Dannenberg, S. Dapprich, A. D. Daniels, 
 O. Farkas, J. B. Foresman, J. V. Ortiz, J. Cioslowski, 
 and D. J. Fox, Gaussian, Inc., Wallingford CT, 2013.
 
 ******************************************
 Gaussian 09:  IA32W-G09RevD.01 24-Apr-2013
                28-Mar-2026 
 ******************************************
 %chk=C:\Users\emman\Escritorio\quimica-enlaces\molecula\bn.chk
 --------------
 #p b3lyp/3-21g
 --------------
 1/38=1/1;
 2/12=2,17=6,18=5,40=1/2;
 3/5=5,11=2,16=1,25=1,30=1,74=-5/1,2,3;
 4//1;
 5/5=2,38=5/2;
 6/7=2,8=2,9=2,10=2,28=1/1;
 99/5=1,9=1/99;
 Leave Link    1 at Sat Mar 28 20:12:30 2026, MaxMem=           0 cpu:         1.0
 (Enter C:\G09W\l101.exe)
 ------------------------------------------------
 Title Card Required - Distancia +2.60A - Paso 13
 ------------------------------------------------
 Symbolic Z-matrix:
 Charge =  0 Multiplicity = 2
 Li                    4.64474   1.33044   0. 
 H                     3.11474   1.33044   0. 
 Be                    5.94425  -2.01738   0. 
 H                     4.75425  -2.01738   0. 
 
 NAtoms=      4 NQM=        4 NQMF=       0 NMMI=      0 NMMIF=      0
                NMic=       0 NMicF=      0.
                    Isotopes and Nuclear Properties:
 (Nuclear quadrupole moments (NQMom) in fm**2, nuclear magnetic moments (NMagM)
  in nuclear magnetons)

  Atom         1           2           3           4
 IAtWgt=           7           1           9           1
 AtmWgt=   7.0160045   1.0078250   9.0121825   1.0078250
 NucSpn=           3           1           3           1
 AtZEff=   0.0000000   0.0000000   0.0000000   0.0000000
 NQMom=   -4.0100000   0.0000000   5.2880000   0.0000000
 NMagM=    3.2564240   2.7928460  -1.1779000   2.7928460
 AtZNuc=   3.0000000   1.0000000   4.0000000   1.0000000
 Leave Link  101 at Sat Mar 28 20:12:30 2026, MaxMem=    33554432 cpu:         0.0
 (Enter C:\G09W\l202.exe)
                          Input orientation:                          
 ---------------------------------------------------------------------
 Center     Atomic      Atomic             Coordinates (Angstroms)
 Number     Number       Type             X           Y           Z
 ---------------------------------------------------------------------
      1          3           0        4.644740    1.330443    0.000000
      2          1           0        3.114740    1.330443    0.000000
      3          4           0        5.944251   -2.017375    0.000000
      4          1           0        4.754251   -2.017375    0.000000
 ---------------------------------------------------------------------
                    Distance matrix (angstroms):
                    1          2          3          4
     1  Li   0.000000
     2  H    1.530000   0.000000
     3  Be   3.591185   4.383379   0.000000
     4  H    3.349609   3.727718   1.190000   0.000000
 Stoichiometry    BeH2Li(2)
 Framework group  CS[SG(BeH2Li)]
 Deg. of freedom     5
 Full point group                 CS      NOp   2
 Largest Abelian subgroup         CS      NOp   2
 Largest concise Abelian subgroup C1      NOp   1
                         Standard orientation:                         
 ---------------------------------------------------------------------
 Center     Atomic      Atomic             Coordinates (Angstroms)
 Number     Number       Type             X           Y           Z
 ---------------------------------------------------------------------
      1          3           0        0.281741    1.885740    0.000000
      2          1           0       -1.144574    2.439388    0.000000
      3          4           0        0.281741   -1.705445    0.000000
      4          1           0       -0.827615   -1.274830    0.000000
 ---------------------------------------------------------------------
 Rotational constants (GHZ):    177.9089916      8.5900972      8.1944397
 Leave Link  202 at Sat Mar 28 20:12:30 2026, MaxMem=    33554432 cpu:         0.0
 (Enter C:\G09W\l301.exe)
 Standard basis: 3-21G (6D, 7F)
 Ernie: Thresh=  0.10000D-02 Tol=  0.10000D-05 Strict=F.
 There are    18 symmetry adapted cartesian basis functions of A'  symmetry.
 There are     4 symmetry adapted cartesian basis functions of A"  symmetry.
 There are    18 symmetry adapted basis functions of A'  symmetry.
 There are     4 symmetry adapted basis functions of A"  symmetry.
    22 basis functions,    36 primitive gaussians,    22 cartesian basis functions
     5 alpha electrons        4 beta electrons
       nuclear repulsion energy         5.6834000376 Hartrees.
 IExCor=  402 DFT=T Ex+Corr=B3LYP ExCW=0 ScaHFX=  0.200000
 ScaDFX=  0.800000  0.720000  1.000000  0.810000 ScalE2=  1.000000  1.000000
 IRadAn=      0 IRanWt=     -1 IRanGd=            0 ICorTp=0 IEmpDi=  4
 NAtoms=    4 NActive=    4 NUniq=    4 SFac= 1.00D+00 NAtFMM=   60 NAOKFM=F Big=F
 Integral buffers will be    262144 words long.
 Raffenetti 2 integral format.
 Two-electron integral symmetry is turned on.
 Leave Link  301 at Sat Mar 28 20:12:30 2026, MaxMem=    33554432 cpu:         0.0
 (Enter C:\G09W\l302.exe)
 NPDir=0 NMtPBC=     1 NCelOv=     1 NCel=       1 NClECP=     1 NCelD=      1
         NCelK=      1 NCelE2=     1 NClLst=     1 CellRange=     0.0.
 One-electron integrals computed using PRISM.
 NBasis=    22 RedAO= T EigKep=  7.49D-02  NBF=    18     4
 NBsUse=    22 1.00D-06 EigRej= -1.00D+00 NBFU=    18     4
 Precomputing XC quadrature grid using
 IXCGrd= 4 IRadAn=           0 IRanWt=          -1 IRanGd=           0 AccXCQ= 0.00D+00.
 Generated NRdTot=       0 NPtTot=           0 NUsed=           0 NTot=          16
 NSgBfM=    22    22    22    22    22 MxSgAt=     4 MxSgA2=     4.
 Leave Link  302 at Sat Mar 28 20:12:30 2026, MaxMem=    33554432 cpu:         0.0
 (Enter C:\G09W\l303.exe)
 DipDrv:  MaxL=1.
 Leave Link  303 at Sat Mar 28 20:12:30 2026, MaxMem=    33554432 cpu:         0.0
 (Enter C:\G09W\l401.exe)
 ExpMin= 2.86D-02 ExpMax= 7.19D+01 ExpMxC= 7.19D+01 IAcc=3 IRadAn=         5 AccDes= 0.00D+00
 Harris functional with IExCor=  402 and IRadAn=       5 diagonalized for initial guess.
 HarFok:  IExCor=  402 AccDes= 0.00D+00 IRadAn=         5 IDoV= 1 UseB2=F ITyADJ=14
 ICtDFT=  3500011 ScaDFX=  1.000000  1.000000  1.000000  1.000000
 FoFCou: FMM=F IPFlag=           0 FMFlag=      100000 FMFlg1=           0
         NFxFlg=           0 DoJE=T BraDBF=F KetDBF=T FulRan=T
         wScrn=  0.000000 ICntrl=     500 IOpCl=  0 I1Cent=   200000004 NGrid=           0
         NMat0=    1 NMatS0=      1 NMatT0=    0 NMatD0=    1 NMtDS0=    0 NMtDT0=    0
 Petite list used in FoFCou.
 Harris En= -23.2206464839787    
 JPrj=0 DoOrth=F DoCkMO=F.
 Initial guess orbital symmetries:
 Alpha Orbitals:
       Occupied  (A') (A') (A') (A') (A')
       Virtual   (A') (A") (A') (A") (A') (A') (A') (A") (A') (A')
                 (A') (A") (A') (A') (A') (A') (A')
 Beta  Orbitals:
       Occupied  (A') (A') (A') (A')
       Virtual   (A') (A') (A") (A') (A") (A') (A') (A') (A") (A')
                 (A') (A') (A") (A') (A') (A') (A') (A')
 The electronic state of the initial guess is 2-A'.
 Initial guess <Sx>= 0.0000 <Sy>= 0.0000 <Sz>= 0.5000 <S**2>= 0.7500 S= 0.5000
 Leave Link  401 at Sat Mar 28 20:12:30 2026, MaxMem=    33554432 cpu:         0.0
 (Enter C:\G09W\l502.exe)
 UHF open shell SCF:
 Using DIIS extrapolation, IDIIS=  1040.
 Integral symmetry usage will be decided dynamically.
 Keep R1 and R2 ints in memory in symmetry-blocked form, NReq=914551.
 IVT=       20170 IEndB=       20170 NGot=    33554432 MDV=    33495625
 LenX=    33495625 LenY=    33494700
 Requested convergence on RMS density matrix=1.00D-08 within 128 cycles.
 Requested convergence on MAX density matrix=1.00D-06.
 Requested convergence on             energy=1.00D-06.
 No special actions if energy rises.
 FoFCou: FMM=F IPFlag=           0 FMFlag=           0 FMFlg1=           0
         NFxFlg=           0 DoJE=F BraDBF=F KetDBF=F FulRan=T
         wScrn=  0.000000 ICntrl=     600 IOpCl=  0 I1Cent=           0 NGrid=           0
         NMat0=    1 NMatS0=    253 NMatT0=    0 NMatD0=    1 NMtDS0=    0 NMtDT0=    0
 Petite list used in FoFCou.

 Cycle   1  Pass 1  IDiag  1:
 E= -23.1280523991888    
 DIIS: error= 4.41D-02 at cycle   1 NSaved=   1.
 NSaved= 1 IEnMin= 1 EnMin= -23.1280523991888     IErMin= 1 ErrMin= 4.41D-02
 ErrMax= 4.41D-02  0.00D+00 EMaxC= 1.00D-01 BMatC= 1.08D-01 BMatP= 1.08D-01
 IDIUse=3 WtCom= 5.59D-01 WtEn= 4.41D-01
 Coeff-Com:  0.100D+01
 Coeff-En:   0.100D+01
 Coeff:      0.100D+01
 Gap=     0.139 Goal=   None    Shift=    0.000
 Gap=    -0.022 Goal=   None    Shift=    0.000
 GapD=   -0.022 DampG=0.250 DampE=0.500 DampFc=0.2500 IDamp=-1.
 Damping current iteration by 2.50D-01
 RMSDP=2.39D-02 MaxDP=1.94D-01              OVMax= 5.68D-01

 Cycle   2  Pass 1  IDiag  1:
 E= -23.1445133763010     Delta-E=       -0.016460977112 Rises=F Damp=T
 DIIS: error= 2.30D-02 at cycle   2 NSaved=   2.
 NSaved= 2 IEnMin= 2 EnMin= -23.1445133763010     IErMin= 2 ErrMin= 2.30D-02
 ErrMax= 2.30D-02  0.00D+00 EMaxC= 1.00D-01 BMatC= 3.62D-02 BMatP= 1.08D-01
 IDIUse=3 WtCom= 7.70D-01 WtEn= 2.30D-01
 Coeff-Com: -0.127D+01 0.227D+01
 Coeff-En:   0.000D+00 0.100D+01
 Coeff:     -0.977D+00 0.198D+01
 Gap=     0.090 Goal=   None    Shift=    0.000
 Gap=     0.121 Goal=   None    Shift=    0.000
 RMSDP=8.27D-03 MaxDP=6.93D-02 DE=-1.65D-02 OVMax= 4.48D-01

 Cycle   3  Pass 1  IDiag  1:
 E= -23.1849832311688     Delta-E=       -0.040469854868 Rises=F Damp=F
 DIIS: error= 1.07D-02 at cycle   3 NSaved=   3.
 NSaved= 3 IEnMin= 3 EnMin= -23.1849832311688     IErMin= 3 ErrMin= 1.07D-02
 ErrMax= 1.07D-02  0.00D+00 EMaxC= 1.00D-01 BMatC= 3.74D-03 BMatP= 3.62D-02
 IDIUse=3 WtCom= 8.93D-01 WtEn= 1.07D-01
 Coeff-Com: -0.717D+00 0.117D+01 0.546D+00
 Coeff-En:   0.000D+00 0.000D+00 0.100D+01
 Coeff:     -0.640D+00 0.105D+01 0.595D+00
 Gap=     0.124 Goal=   None    Shift=    0.000
 Gap=     0.123 Goal=   None    Shift=    0.000
 RMSDP=1.77D-03 MaxDP=1.59D-02 DE=-4.05D-02 OVMax= 2.53D-02

 Cycle   4  Pass 1  IDiag  1:
 E= -23.1870992161097     Delta-E=       -0.002115984941 Rises=F Damp=F
 DIIS: error= 5.17D-03 at cycle   4 NSaved=   4.
 NSaved= 4 IEnMin= 4 EnMin= -23.1870992161097     IErMin= 4 ErrMin= 5.17D-03
 ErrMax= 5.17D-03  0.00D+00 EMaxC= 1.00D-01 BMatC= 7.73D-04 BMatP= 3.74D-03
 IDIUse=3 WtCom= 9.48D-01 WtEn= 5.17D-02
 Coeff-Com: -0.220D+00 0.285D+00-0.231D+00 0.117D+01
 Coeff-En:   0.000D+00 0.000D+00 0.000D+00 0.100D+01
 Coeff:     -0.209D+00 0.270D+00-0.219D+00 0.116D+01
 Gap=     0.124 Goal=   None    Shift=    0.000
 Gap=     0.112 Goal=   None    Shift=    0.000
 RMSDP=1.18D-03 MaxDP=1.24D-02 DE=-2.12D-03 OVMax= 1.95D-02

 Cycle   5  Pass 1  IDiag  1:
 E= -23.1876669121832     Delta-E=       -0.000567696073 Rises=F Damp=F
 DIIS: error= 1.38D-03 at cycle   5 NSaved=   5.
 NSaved= 5 IEnMin= 5 EnMin= -23.1876669121832     IErMin= 5 ErrMin= 1.38D-03
 ErrMax= 1.38D-03  0.00D+00 EMaxC= 1.00D-01 BMatC= 4.79D-05 BMatP= 7.73D-04
 IDIUse=3 WtCom= 9.86D-01 WtEn= 1.38D-02
 Coeff-Com:  0.163D-01-0.231D-01-0.357D-01-0.297D+00 0.134D+01
 Coeff-En:   0.000D+00 0.000D+00 0.000D+00 0.000D+00 0.100D+01
 Coeff:      0.161D-01-0.227D-01-0.352D-01-0.293D+00 0.133D+01
 Gap=     0.111 Goal=   None    Shift=    0.000
 Gap=     0.108 Goal=   None    Shift=    0.000
 RMSDP=4.51D-04 MaxDP=5.26D-03 DE=-5.68D-04 OVMax= 8.57D-03

 Cycle   6  Pass 1  IDiag  1:
 E= -23.1877073724852     Delta-E=       -0.000040460302 Rises=F Damp=F
 DIIS: error= 1.88D-04 at cycle   6 NSaved=   6.
 NSaved= 6 IEnMin= 6 EnMin= -23.1877073724852     IErMin= 6 ErrMin= 1.88D-04
 ErrMax= 1.88D-04  0.00D+00 EMaxC= 1.00D-01 BMatC= 6.05D-07 BMatP= 4.79D-05
 IDIUse=3 WtCom= 9.98D-01 WtEn= 1.88D-03
 Coeff-Com: -0.345D-03 0.154D-02 0.134D-01 0.477D-01-0.213D+00 0.115D+01
 Coeff-En:   0.000D+00 0.000D+00 0.000D+00 0.000D+00 0.000D+00 0.100D+01
 Coeff:     -0.344D-03 0.154D-02 0.134D-01 0.476D-01-0.212D+00 0.115D+01
 Gap=     0.112 Goal=   None    Shift=    0.000
 Gap=     0.108 Goal=   None    Shift=    0.000
 RMSDP=5.29D-05 MaxDP=7.22D-04 DE=-4.05D-05 OVMax= 1.68D-03

 Cycle   7  Pass 1  IDiag  1:
 E= -23.1877081126353     Delta-E=       -0.000000740150 Rises=F Damp=F
 DIIS: error= 5.62D-05 at cycle   7 NSaved=   7.
 NSaved= 7 IEnMin= 7 EnMin= -23.1877081126353     IErMin= 7 ErrMin= 5.62D-05
 ErrMax= 5.62D-05  0.00D+00 EMaxC= 1.00D-01 BMatC= 5.28D-08 BMatP= 6.05D-07
 IDIUse=1 WtCom= 1.00D+00 WtEn= 0.00D+00
 Coeff-Com: -0.465D-02 0.636D-02 0.198D-02 0.457D-01-0.197D+00-0.233D+00
 Coeff-Com:  0.138D+01
 Coeff:     -0.465D-02 0.636D-02 0.198D-02 0.457D-01-0.197D+00-0.233D+00
 Coeff:      0.138D+01
 Gap=     0.112 Goal=   None    Shift=    0.000
 Gap=     0.108 Goal=   None    Shift=    0.000
 RMSDP=2.70D-05 MaxDP=2.70D-04 DE=-7.40D-07 OVMax= 7.15D-04

 Cycle   8  Pass 1  IDiag  1:
 E= -23.1877082112548     Delta-E=       -0.000000098619 Rises=F Damp=F
 DIIS: error= 3.65D-05 at cycle   8 NSaved=   8.
 NSaved= 8 IEnMin= 8 EnMin= -23.1877082112548     IErMin= 8 ErrMin= 3.65D-05
 ErrMax= 3.65D-05  0.00D+00 EMaxC= 1.00D-01 BMatC= 2.81D-08 BMatP= 5.28D-08
 IDIUse=1 WtCom= 1.00D+00 WtEn= 0.00D+00
 Coeff-Com: -0.379D-03 0.825D-03-0.433D-03-0.171D-01 0.471D-01 0.665D-02
 Coeff-Com: -0.330D+00 0.129D+01
 Coeff:     -0.379D-03 0.825D-03-0.433D-03-0.171D-01 0.471D-01 0.665D-02
 Coeff:     -0.330D+00 0.129D+01
 Gap=     0.112 Goal=   None    Shift=    0.000
 Gap=     0.108 Goal=   None    Shift=    0.000
 RMSDP=9.23D-06 MaxDP=1.27D-04 DE=-9.86D-08 OVMax= 2.73D-04

 Cycle   9  Pass 1  IDiag  1:
 E= -23.1877082364712     Delta-E=       -0.000000025216 Rises=F Damp=F
 DIIS: error= 4.45D-06 at cycle   9 NSaved=   9.
 NSaved= 9 IEnMin= 9 EnMin= -23.1877082364712     IErMin= 9 ErrMin= 4.45D-06
 ErrMax= 4.45D-06  0.00D+00 EMaxC= 1.00D-01 BMatC= 4.23D-10 BMatP= 2.81D-08
 IDIUse=1 WtCom= 1.00D+00 WtEn= 0.00D+00
 Coeff-Com:  0.227D-04-0.428D-04 0.145D-03 0.107D-02-0.271D-02 0.508D-02
 Coeff-Com:  0.167D-01-0.258D+00 0.124D+01
 Coeff:      0.227D-04-0.428D-04 0.145D-03 0.107D-02-0.271D-02 0.508D-02
 Coeff:      0.167D-01-0.258D+00 0.124D+01
 Gap=     0.112 Goal=   None    Shift=    0.000
 Gap=     0.108 Goal=   None    Shift=    0.000
 RMSDP=1.39D-06 MaxDP=1.90D-05 DE=-2.52D-08 OVMax= 4.09D-05

 Cycle  10  Pass 1  IDiag  1:
 E= -23.1877082369022     Delta-E=       -0.000000000431 Rises=F Damp=F
 DIIS: error= 2.24D-07 at cycle  10 NSaved=  10.
 NSaved=10 IEnMin=10 EnMin= -23.1877082369022     IErMin=10 ErrMin= 2.24D-07
 ErrMax= 2.24D-07  0.00D+00 EMaxC= 1.00D-01 BMatC= 2.07D-12 BMatP= 4.23D-10
 IDIUse=1 WtCom= 1.00D+00 WtEn= 0.00D+00
 Coeff-Com:  0.516D-05-0.131D-04-0.460D-05 0.337D-03-0.822D-03-0.550D-03
 Coeff-Com:  0.372D-02 0.261D-02-0.184D+00 0.118D+01
 Coeff:      0.516D-05-0.131D-04-0.460D-05 0.337D-03-0.822D-03-0.550D-03
 Coeff:      0.372D-02 0.261D-02-0.184D+00 0.118D+01
 Gap=     0.112 Goal=   None    Shift=    0.000
 Gap=     0.108 Goal=   None    Shift=    0.000
 RMSDP=1.51D-07 MaxDP=1.32D-06 DE=-4.31D-10 OVMax= 3.65D-06

 Cycle  11  Pass 1  IDiag  1:
 E= -23.1877082369063     Delta-E=       -0.000000000004 Rises=F Damp=F
 DIIS: error= 3.80D-08 at cycle  11 NSaved=  11.
 NSaved=11 IEnMin=11 EnMin= -23.1877082369063     IErMin=11 ErrMin= 3.80D-08
 ErrMax= 3.80D-08  0.00D+00 EMaxC= 1.00D-01 BMatC= 9.67D-14 BMatP= 2.07D-12
 IDIUse=1 WtCom= 1.00D+00 WtEn= 0.00D+00
 Coeff-Com:  0.176D-05-0.185D-05-0.725D-05-0.814D-04 0.252D-03 0.381D-04
 Coeff-Com: -0.170D-02 0.113D-01-0.380D-01-0.739D-01 0.110D+01
 Coeff:      0.176D-05-0.185D-05-0.725D-05-0.814D-04 0.252D-03 0.381D-04
 Coeff:     -0.170D-02 0.113D-01-0.380D-01-0.739D-01 0.110D+01
 Gap=     0.112 Goal=   None    Shift=    0.000
 Gap=     0.108 Goal=   None    Shift=    0.000
 RMSDP=2.42D-08 MaxDP=1.61D-07 DE=-4.11D-12 OVMax= 5.12D-07

 Cycle  12  Pass 1  IDiag  1:
 E= -23.1877082369064     Delta-E=        0.000000000000 Rises=F Damp=F
 DIIS: error= 9.49D-09 at cycle  12 NSaved=  12.
 NSaved=12 IEnMin=12 EnMin= -23.1877082369064     IErMin=12 ErrMin= 9.49D-09
 ErrMax= 9.49D-09  0.00D+00 EMaxC= 1.00D-01 BMatC= 4.37D-15 BMatP= 9.67D-14
 IDIUse=1 WtCom= 1.00D+00 WtEn= 0.00D+00
 Coeff-Com: -0.640D-07 0.663D-07 0.874D-06 0.194D-05-0.172D-05 0.149D-04
 Coeff-Com:  0.125D-03-0.153D-02 0.861D-02-0.621D-02-0.231D+00 0.123D+01
 Coeff:     -0.640D-07 0.663D-07 0.874D-06 0.194D-05-0.172D-05 0.149D-04
 Coeff:      0.125D-03-0.153D-02 0.861D-02-0.621D-02-0.231D+00 0.123D+01
 Gap=     0.112 Goal=   None    Shift=    0.000
 Gap=     0.108 Goal=   None    Shift=    0.000
 RMSDP=8.24D-09 MaxDP=8.12D-08 DE=-1.35D-13 OVMax= 2.34D-07

 SCF Done:  E(UB3LYP) =  -23.1877082369     A.U. after   12 cycles
            NFock= 12  Conv=0.82D-08     -V/T= 2.0051
 <Sx>= 0.0000 <Sy>= 0.0000 <Sz>= 0.5000 <S**2>= 0.7507 S= 0.5004
 <L.S>= 0.000000000000E+00
 KE= 2.306935472351D+01 PE=-6.424180682821D+01 EE= 1.230134383021D+01
 Annihilation of the first spin contaminant:
 S**2 before annihilation     0.7507,   after     0.7500
 Leave Link  502 at Sat Mar 28 20:12:31 2026, MaxMem=    33554432 cpu:         1.0
 (Enter C:\G09W\l601.exe)
 Copying SCF densities to generalized density rwf, IOpCl= 1 IROHF=0.

 **********************************************************************

            Population analysis using the SCF density.

 **********************************************************************

 Orbital symmetries:
 Alpha Orbitals:
       Occupied  (A') (A') (A') (A') (A')
       Virtual   (A') (A") (A') (A") (A') (A') (A') (A') (A") (A')
                 (A') (A") (A') (A') (A') (A') (A')
 Beta  Orbitals:
       Occupied  (A') (A') (A') (A')
       Virtual   (A') (A') (A") (A') (A") (A') (A') (A') (A') (A")
                 (A') (A') (A") (A') (A') (A') (A') (A')
 The electronic state is 2-A'.
 Alpha  occ. eigenvalues --   -4.04628  -1.97395  -0.37994  -0.21584  -0.19452
 Alpha virt. eigenvalues --   -0.08272  -0.06569  -0.02798   0.00289   0.02654
 Alpha virt. eigenvalues --    0.06803   0.10868   0.12101   0.12328   0.16178
 Alpha virt. eigenvalues --    0.25025   0.28591   0.29597   0.32393   0.51093
 Alpha virt. eigenvalues --    1.18018   1.19436
  Beta  occ. eigenvalues --   -4.03838  -1.97393  -0.36640  -0.19458
  Beta virt. eigenvalues --   -0.08671  -0.06149  -0.04685  -0.02244   0.00484
  Beta virt. eigenvalues --    0.03390   0.06933   0.10941   0.12183   0.12231
  Beta virt. eigenvalues --    0.17513   0.25262   0.29552   0.31451   0.35856
  Beta virt. eigenvalues --    0.53122   1.18078   1.21077
          Condensed to atoms (all electrons):
               1          2          3          4
     1  Li   2.464719   0.377026   0.017853  -0.002827
     2  H    0.377026   0.782729   0.000348  -0.000186
     3  Be   0.017853   0.000348   3.493779   0.407952
     4  H   -0.002827  -0.000186   0.407952   0.658441
          Atomic-Atomic Spin Densities.
               1          2          3          4
     1  Li   0.001936  -0.000418   0.017220  -0.002049
     2  H   -0.000418   0.000119   0.000217  -0.000006
     3  Be   0.017220   0.000217   0.896665  -0.009604
     4  H   -0.002049  -0.000006  -0.009604   0.090560
 Mulliken charges and spin densities:
               1          2
     1  Li   0.143229   0.016689
     2  H   -0.159917  -0.000088
     3  Be   0.080068   0.904498
     4  H   -0.063379   0.078901
 Sum of Mulliken charges =   0.00000   1.00000
 Mulliken charges and spin densities with hydrogens summed into heavy atoms:
               1          2
     1  Li  -0.016688   0.016601
     3  Be   0.016688   0.983399
 Electronic spatial extent (au):  <R**2>=            152.2900
 Charge=              0.0000 electrons
 Dipole moment (field-independent basis, Debye):
    X=              4.7632    Y=             -2.5887    Z=              0.0000  Tot=              5.4212
 Quadrupole moment (field-independent basis, Debye-Ang):
   XX=            -17.3987   YY=            -19.2580   ZZ=            -12.4170
   XY=             12.0396   XZ=              0.0000   YZ=              0.0000
 Traceless Quadrupole moment (field-independent basis, Debye-Ang):
   XX=             -1.0408   YY=             -2.9001   ZZ=              3.9409
   XY=             12.0396   XZ=              0.0000   YZ=              0.0000
 Octapole moment (field-independent basis, Debye-Ang**2):
  XXX=              5.5589  YYY=            -35.2787  ZZZ=              0.0000  XYY=             21.6044
  XXY=             -0.3328  XXZ=              0.0000  XZZ=              2.1218  YZZ=             -2.5099
  YYZ=              0.0000  XYZ=              0.0000
 Hexadecapole moment (field-independent basis, Debye-Ang**3):
 XXXX=            -68.0539 YYYY=           -381.6614 ZZZZ=            -29.7759 XXXY=             45.1542
 XXXZ=              0.0000 YYYX=             95.9977 YYYZ=              0.0000 ZZZX=              0.0000
 ZZZY=              0.0000 XXYY=            -82.7764 XXZZ=            -15.9187 YYZZ=            -57.3590
 XXYZ=              0.0000 YYXZ=              0.0000 ZZXY=             12.6675
 N-N= 5.683400037580D+00 E-N=-6.424180681305D+01  KE= 2.306935472351D+01
 Symmetry A'   KE= 2.306935472351D+01
 Symmetry A"   KE= 0.000000000000D+00
                          Isotropic Fermi Contact Couplings
        Atom                 a.u.       MegaHertz       Gauss      10(-4) cm-1
     1  Li(7)              0.00033       0.57297       0.20445       0.19112
     2  H(1)              -0.00009      -0.40060      -0.14294      -0.13363
     3  Be(9)              0.20515    -128.91581     -46.00037     -43.00169
     4  H(1)               0.03642     162.80476      58.09279      54.30582
 --------------------------------------------------------
       Center         ----  Spin Dipole Couplings  ----
                      3XX-RR        3YY-RR        3ZZ-RR
 --------------------------------------------------------
     1   Atom       -0.002167      0.004927     -0.002761
     2   Atom       -0.000526      0.001944     -0.001417
     3   Atom        0.107129     -0.045700     -0.061428
     4   Atom        0.021183     -0.008241     -0.012942
 --------------------------------------------------------
                        XY            XZ            YZ
 --------------------------------------------------------
     1   Atom       -0.001640      0.000000      0.000000
     2   Atom       -0.001503      0.000000      0.000000
     3   Atom       -0.050017      0.000000      0.000000
     4   Atom       -0.012228      0.000000      0.000000
 --------------------------------------------------------


 ---------------------------------------------------------------------------------
              Anisotropic Spin Dipole Couplings in Principal Axis System
 ---------------------------------------------------------------------------------

       Atom             a.u.   MegaHertz   Gauss  10(-4) cm-1        Axes

              Baa    -0.0028    -0.572    -0.204    -0.191  0.0000  0.0000  1.0000
     1 Li(7)  Bbb    -0.0025    -0.524    -0.187    -0.175  0.9766  0.2149  0.0000
              Bcc     0.0053     1.097     0.391     0.366 -0.2149  0.9766  0.0000
 
              Baa    -0.0014    -0.756    -0.270    -0.252  0.0000  0.0000  1.0000
     2 H(1)   Bbb    -0.0012    -0.660    -0.235    -0.220  0.9041  0.4273  0.0000
              Bcc     0.0027     1.416     0.505     0.472 -0.4273  0.9041  0.0000
 
              Baa    -0.0614     4.608     1.644     1.537  0.0000  0.0000  1.0000
     3 Be(9)  Bbb    -0.0606     4.547     1.622     1.517  0.2857  0.9583  0.0000
              Bcc     0.1220    -9.154    -3.267    -3.054  0.9583 -0.2857  0.0000
 
              Baa    -0.0129    -6.905    -2.464    -2.303  0.0000  0.0000  1.0000
     4 H(1)   Bbb    -0.0127    -6.754    -2.410    -2.253  0.3398  0.9405  0.0000
              Bcc     0.0256    13.660     4.874     4.556  0.9405 -0.3398  0.0000
 

 ---------------------------------------------------------------------------------

 No NMR shielding tensors so no spin-rotation constants.
 Leave Link  601 at Sat Mar 28 20:12:31 2026, MaxMem=    33554432 cpu:         0.0
 (Enter C:\G09W\l9999.exe)
 1|1|UNPC-INANI_LAP|SP|UB3LYP|3-21G|Be1H2Li1(2)|EMMAN|28-Mar-2026|0||#p
  b3lyp/3-21g||Title Card Required - Distancia +2.60A - Paso 13||0,2|Li
 ,0,4.64474019,1.33044279,0.|H,0,3.11474019,1.33044279,0.|Be,0,5.944250
 77,-2.01737509,0.|H,0,4.75425077,-2.01737509,0.||Version=IA32W-G09RevD
 .01|State=2-A'|HF=-23.1877082|S2=0.750705|S2-1=0.|S2A=0.75|RMSD=8.237e
 -009|Dipole=2.1155245,-0.2713522,0.|Quadrupole=-6.9939593,4.0639868,2.
 9299725,7.0732935,0.,0.|PG=CS [SG(Be1H2Li1)]||@


 MAN IS A SINGULAR CREATURE.  HE HAS A SET OF GIFTS
 WHICH MAKE HIM UNIQUE AMONG THE ANIMALS: SO THAT, 
 UNLIKE THEM, HE IS NOT A FIGURE IN THE LANDSCAPE --
 HE IS A SHAPER OF THE LANDSCAPE.

                       -- JACOB BRONOWSKI
 Job cpu time:       0 days  0 hours  0 minutes  2.0 seconds.
 File lengths (MBytes):  RWF=      5 Int=      0 D2E=      0 Chk=      1 Scr=      1
 Normal termination of Gaussian 09 at Sat Mar 28 20:12:31 2026.
