 Entering Link 1 = C:\G09W\l1.exe PID=     11204.
  
 Copyright (c) 1988,1990,1992,1993,1995,1998,2003,2009,2013,
            Gaussian, Inc.  All Rights Reserved.
  
 This is part of the Gaussian(R) 09 program.  It is based on
 the Gaussian(R) 03 system (copyright 2003, Gaussian, Inc.),
 the Gaussian(R) 98 system (copyright 1998, Gaussian, Inc.),
 the Gaussian(R) 94 system (copyright 1995, Gaussian, Inc.),
 the Gaussian 92(TM) system (copyright 1992, Gaussian, Inc.),
 the Gaussian 90(TM) system (copyright 1990, Gaussian, Inc.),
 the Gaussian 88(TM) system (copyright 1988, Gaussian, Inc.),
 the Gaussian 86(TM) system (copyright 1986, Carnegie Mellon
 University), and the Gaussian 82(TM) system (copyright 1983,
 Carnegie Mellon University). Gaussian is a federally registered
 trademark of Gaussian, Inc.
  
 This software contains proprietary and confidential information,
 including trade secrets, belonging to Gaussian, Inc.
  
 This software is provided under written license and may be
 used, copied, transmitted, or stored only in accord with that
 written license.
  
 The following legend is applicable only to US Government
 contracts under FAR:
  
                    RESTRICTED RIGHTS LEGEND
  
 Use, reproduction and disclosure by the US Government is
 subject to restrictions as set forth in subparagraphs (a)
 and (c) of the Commercial Computer Software - Restricted
 Rights clause in FAR 52.227-19.
  
 Gaussian, Inc.
 340 Quinnipiac St., Bldg. 40, Wallingford CT 06492
  
  
 ---------------------------------------------------------------
 Warning -- This program may not be used in any manner that
 competes with the business of Gaussian, Inc. or will provide
 assistance to any competitor of Gaussian, Inc.  The licensee
 of this program is prohibited from giving any competitor of
 Gaussian, Inc. access to this program.  By using this program,
 the user acknowledges that Gaussian, Inc. is engaged in the
 business of creating and licensing software in the field of
 computational chemistry and represents and warrants to the
 licensee that it is not a competitor of Gaussian, Inc. and that
 it will not use this program in any manner prohibited above.
 ---------------------------------------------------------------
  

 Cite this work as:
 Gaussian 09, Revision D.01,
 M. J. Frisch, G. W. Trucks, H. B. Schlegel, G. E. Scuseria, 
 M. A. Robb, J. R. Cheeseman, G. Scalmani, V. Barone, B. Mennucci, 
 G. A. Petersson, H. Nakatsuji, M. Caricato, X. Li, H. P. Hratchian, 
 A. F. Izmaylov, J. Bloino, G. Zheng, J. L. Sonnenberg, M. Hada, 
 M. Ehara, K. Toyota, R. Fukuda, J. Hasegawa, M. Ishida, T. Nakajima, 
 Y. Honda, O. Kitao, H. Nakai, T. Vreven, J. A. Montgomery, Jr., 
 J. E. Peralta, F. Ogliaro, M. Bearpark, J. J. Heyd, E. Brothers, 
 K. N. Kudin, V. N. Staroverov, T. Keith, R. Kobayashi, J. Normand, 
 K. Raghavachari, A. Rendell, J. C. Burant, S. S. Iyengar, J. Tomasi, 
 M. Cossi, N. Rega, J. M. Millam, M. Klene, J. E. Knox, J. B. Cross, 
 V. Bakken, C. Adamo, J. Jaramillo, R. Gomperts, R. E. Stratmann, 
 O. Yazyev, A. J. Austin, R. Cammi, C. Pomelli, J. W. Ochterski, 
 R. L. Martin, K. Morokuma, V. G. Zakrzewski, G. A. Voth, 
 P. Salvador, J. J. Dannenberg, S. Dapprich, A. D. Daniels, 
 O. Farkas, J. B. Foresman, J. V. Ortiz, J. Cioslowski, 
 and D. J. Fox, Gaussian, Inc., Wallingford CT, 2013.
 
 ******************************************
 Gaussian 09:  IA32W-G09RevD.01 24-Apr-2013
                28-Mar-2026 
 ******************************************
 %chk=C:\Users\emman\Escritorio\quimica-enlaces\molecula\bn.chk
 --------------
 #p b3lyp/3-21g
 --------------
 1/38=1/1;
 2/12=2,17=6,18=5,40=1/2;
 3/5=5,11=2,16=1,25=1,30=1,74=-5/1,2,3;
 4//1;
 5/5=2,38=5/2;
 6/7=2,8=2,9=2,10=2,28=1/1;
 99/5=1,9=1/99;
 Leave Link    1 at Sat Mar 28 20:12:33 2026, MaxMem=           0 cpu:         0.0
 (Enter C:\G09W\l101.exe)
 ------------------------------------------------
 Title Card Required - Distancia +3.20A - Paso 16
 ------------------------------------------------
 Symbolic Z-matrix:
 Charge =  0 Multiplicity = 2
 Li                    4.64474   1.33044   0. 
 H                     3.11474   1.33044   0. 
 Be                    6.18541  -2.56678   0. 
 H                     4.99541  -2.56678   0. 
 
 NAtoms=      4 NQM=        4 NQMF=       0 NMMI=      0 NMMIF=      0
                NMic=       0 NMicF=      0.
                    Isotopes and Nuclear Properties:
 (Nuclear quadrupole moments (NQMom) in fm**2, nuclear magnetic moments (NMagM)
  in nuclear magnetons)

  Atom         1           2           3           4
 IAtWgt=           7           1           9           1
 AtmWgt=   7.0160045   1.0078250   9.0121825   1.0078250
 NucSpn=           3           1           3           1
 AtZEff=   0.0000000   0.0000000   0.0000000   0.0000000
 NQMom=   -4.0100000   0.0000000   5.2880000   0.0000000
 NMagM=    3.2564240   2.7928460  -1.1779000   2.7928460
 AtZNuc=   3.0000000   1.0000000   4.0000000   1.0000000
 Leave Link  101 at Sat Mar 28 20:12:33 2026, MaxMem=    33554432 cpu:         0.0
 (Enter C:\G09W\l202.exe)
                          Input orientation:                          
 ---------------------------------------------------------------------
 Center     Atomic      Atomic             Coordinates (Angstroms)
 Number     Number       Type             X           Y           Z
 ---------------------------------------------------------------------
      1          3           0        4.644740    1.330443    0.000000
      2          1           0        3.114740    1.330443    0.000000
      3          4           0        6.185409   -2.566777    0.000000
      4          1           0        4.995409   -2.566777    0.000000
 ---------------------------------------------------------------------
                    Distance matrix (angstroms):
                    1          2          3          4
     1  Li   0.000000
     2  H    1.530000   0.000000
     3  Be   4.190702   4.961585   0.000000
     4  H    3.912965   4.327267   1.190000   0.000000
 Stoichiometry    BeH2Li(2)
 Framework group  CS[SG(BeH2Li)]
 Deg. of freedom     5
 Full point group                 CS      NOp   2
 Largest Abelian subgroup         CS      NOp   2
 Largest concise Abelian subgroup C1      NOp   1
                         Standard orientation:                         
 ---------------------------------------------------------------------
 Center     Atomic      Atomic             Coordinates (Angstroms)
 Number     Number       Type             X           Y           Z
 ---------------------------------------------------------------------
      1          3           0        0.281057    2.217059    0.000000
      2          1           0       -1.141794    2.779548    0.000000
      3          4           0        0.281057   -1.973643    0.000000
      4          1           0       -0.825605   -1.536152    0.000000
 ---------------------------------------------------------------------
 Rotational constants (GHZ):    178.0229758      6.3348113      6.1171376
 Leave Link  202 at Sat Mar 28 20:12:33 2026, MaxMem=    33554432 cpu:         0.0
 (Enter C:\G09W\l301.exe)
 Standard basis: 3-21G (6D, 7F)
 Ernie: Thresh=  0.10000D-02 Tol=  0.10000D-05 Strict=F.
 There are    18 symmetry adapted cartesian basis functions of A'  symmetry.
 There are     4 symmetry adapted cartesian basis functions of A"  symmetry.
 There are    18 symmetry adapted basis functions of A'  symmetry.
 There are     4 symmetry adapted basis functions of A"  symmetry.
    22 basis functions,    36 primitive gaussians,    22 cartesian basis functions
     5 alpha electrons        4 beta electrons
       nuclear repulsion energy         5.2862578325 Hartrees.
 IExCor=  402 DFT=T Ex+Corr=B3LYP ExCW=0 ScaHFX=  0.200000
 ScaDFX=  0.800000  0.720000  1.000000  0.810000 ScalE2=  1.000000  1.000000
 IRadAn=      0 IRanWt=     -1 IRanGd=            0 ICorTp=0 IEmpDi=  4
 NAtoms=    4 NActive=    4 NUniq=    4 SFac= 1.00D+00 NAtFMM=   60 NAOKFM=F Big=F
 Integral buffers will be    262144 words long.
 Raffenetti 2 integral format.
 Two-electron integral symmetry is turned on.
 Leave Link  301 at Sat Mar 28 20:12:33 2026, MaxMem=    33554432 cpu:         0.0
 (Enter C:\G09W\l302.exe)
 NPDir=0 NMtPBC=     1 NCelOv=     1 NCel=       1 NClECP=     1 NCelD=      1
         NCelK=      1 NCelE2=     1 NClLst=     1 CellRange=     0.0.
 One-electron integrals computed using PRISM.
 NBasis=    22 RedAO= T EigKep=  8.43D-02  NBF=    18     4
 NBsUse=    22 1.00D-06 EigRej= -1.00D+00 NBFU=    18     4
 Precomputing XC quadrature grid using
 IXCGrd= 4 IRadAn=           0 IRanWt=          -1 IRanGd=           0 AccXCQ= 0.00D+00.
 Generated NRdTot=       0 NPtTot=           0 NUsed=           0 NTot=          16
 NSgBfM=    22    22    22    22    22 MxSgAt=     4 MxSgA2=     4.
 Leave Link  302 at Sat Mar 28 20:12:34 2026, MaxMem=    33554432 cpu:         0.0
 (Enter C:\G09W\l303.exe)
 DipDrv:  MaxL=1.
 Leave Link  303 at Sat Mar 28 20:12:34 2026, MaxMem=    33554432 cpu:         0.0
 (Enter C:\G09W\l401.exe)
 ExpMin= 2.86D-02 ExpMax= 7.19D+01 ExpMxC= 7.19D+01 IAcc=3 IRadAn=         5 AccDes= 0.00D+00
 Harris functional with IExCor=  402 and IRadAn=       5 diagonalized for initial guess.
 HarFok:  IExCor=  402 AccDes= 0.00D+00 IRadAn=         5 IDoV= 1 UseB2=F ITyADJ=14
 ICtDFT=  3500011 ScaDFX=  1.000000  1.000000  1.000000  1.000000
 FoFCou: FMM=F IPFlag=           0 FMFlag=      100000 FMFlg1=           0
         NFxFlg=           0 DoJE=T BraDBF=F KetDBF=T FulRan=T
         wScrn=  0.000000 ICntrl=     500 IOpCl=  0 I1Cent=   200000004 NGrid=           0
         NMat0=    1 NMatS0=      1 NMatT0=    0 NMatD0=    1 NMtDS0=    0 NMtDT0=    0
 Petite list used in FoFCou.
 Harris En= -23.2206618723997    
 JPrj=0 DoOrth=F DoCkMO=F.
 Initial guess orbital symmetries:
 Alpha Orbitals:
       Occupied  (A') (A') (A') (A') (A')
       Virtual   (A') (A") (A') (A") (A') (A') (A') (A") (A') (A')
                 (A') (A") (A') (A') (A') (A') (A')
 Beta  Orbitals:
       Occupied  (A') (A') (A') (A')
       Virtual   (A') (A') (A") (A') (A") (A') (A') (A') (A") (A')
                 (A') (A') (A") (A') (A') (A') (A') (A')
 The electronic state of the initial guess is 2-A'.
 Initial guess <Sx>= 0.0000 <Sy>= 0.0000 <Sz>= 0.5000 <S**2>= 0.7500 S= 0.5000
 Leave Link  401 at Sat Mar 28 20:12:34 2026, MaxMem=    33554432 cpu:         0.0
 (Enter C:\G09W\l502.exe)
 UHF open shell SCF:
 Using DIIS extrapolation, IDIIS=  1040.
 Integral symmetry usage will be decided dynamically.
 Keep R1 and R2 ints in memory in symmetry-blocked form, NReq=914551.
 IVT=       20170 IEndB=       20170 NGot=    33554432 MDV=    33495625
 LenX=    33495625 LenY=    33494700
 Requested convergence on RMS density matrix=1.00D-08 within 128 cycles.
 Requested convergence on MAX density matrix=1.00D-06.
 Requested convergence on             energy=1.00D-06.
 No special actions if energy rises.
 FoFCou: FMM=F IPFlag=           0 FMFlag=           0 FMFlg1=           0
         NFxFlg=           0 DoJE=F BraDBF=F KetDBF=F FulRan=T
         wScrn=  0.000000 ICntrl=     600 IOpCl=  0 I1Cent=           0 NGrid=           0
         NMat0=    1 NMatS0=    253 NMatT0=    0 NMatD0=    1 NMtDS0=    0 NMtDT0=    0
 Petite list used in FoFCou.

 Cycle   1  Pass 1  IDiag  1:
 E= -23.1303510039718    
 DIIS: error= 4.62D-02 at cycle   1 NSaved=   1.
 NSaved= 1 IEnMin= 1 EnMin= -23.1303510039718     IErMin= 1 ErrMin= 4.62D-02
 ErrMax= 4.62D-02  0.00D+00 EMaxC= 1.00D-01 BMatC= 1.07D-01 BMatP= 1.07D-01
 IDIUse=3 WtCom= 5.38D-01 WtEn= 4.62D-01
 Coeff-Com:  0.100D+01
 Coeff-En:   0.100D+01
 Coeff:      0.100D+01
 Gap=     0.143 Goal=   None    Shift=    0.000
 Gap=    -0.003 Goal=   None    Shift=    0.000
 GapD=   -0.003 DampG=0.250 DampE=0.500 DampFc=0.2500 IDamp=-1.
 Damping current iteration by 2.50D-01
 RMSDP=2.17D-02 MaxDP=1.81D-01              OVMax= 4.17D-01

 Cycle   2  Pass 1  IDiag  1:
 E= -23.1484229362280     Delta-E=       -0.018071932256 Rises=F Damp=T
 DIIS: error= 2.61D-02 at cycle   2 NSaved=   2.
 NSaved= 2 IEnMin= 2 EnMin= -23.1484229362280     IErMin= 2 ErrMin= 2.61D-02
 ErrMax= 2.61D-02  0.00D+00 EMaxC= 1.00D-01 BMatC= 3.93D-02 BMatP= 1.07D-01
 IDIUse=3 WtCom= 7.39D-01 WtEn= 2.61D-01
 Coeff-Com: -0.149D+01 0.249D+01
 Coeff-En:   0.000D+00 0.100D+01
 Coeff:     -0.110D+01 0.210D+01
 Gap=     0.115 Goal=   None    Shift=    0.000
 Gap=     0.117 Goal=   None    Shift=    0.000
 RMSDP=9.10D-03 MaxDP=7.53D-02 DE=-1.81D-02 OVMax= 2.31D-01

 Cycle   3  Pass 1  IDiag  1:
 E= -23.1877978935543     Delta-E=       -0.039374957326 Rises=F Damp=F
 DIIS: error= 4.15D-03 at cycle   3 NSaved=   3.
 NSaved= 3 IEnMin= 3 EnMin= -23.1877978935543     IErMin= 3 ErrMin= 4.15D-03
 ErrMax= 4.15D-03  0.00D+00 EMaxC= 1.00D-01 BMatC= 6.04D-04 BMatP= 3.93D-02
 IDIUse=3 WtCom= 9.58D-01 WtEn= 4.15D-02
 Coeff-Com: -0.560D+00 0.928D+00 0.632D+00
 Coeff-En:   0.000D+00 0.000D+00 0.100D+01
 Coeff:     -0.537D+00 0.890D+00 0.647D+00
 Gap=     0.127 Goal=   None    Shift=    0.000
 Gap=     0.124 Goal=   None    Shift=    0.000
 RMSDP=8.75D-04 MaxDP=8.54D-03 DE=-3.94D-02 OVMax= 1.20D-02

 Cycle   4  Pass 1  IDiag  1:
 E= -23.1880653736368     Delta-E=       -0.000267480083 Rises=F Damp=F
 DIIS: error= 2.33D-03 at cycle   4 NSaved=   4.
 NSaved= 4 IEnMin= 4 EnMin= -23.1880653736368     IErMin= 4 ErrMin= 2.33D-03
 ErrMax= 2.33D-03  0.00D+00 EMaxC= 1.00D-01 BMatC= 1.42D-04 BMatP= 6.04D-04
 IDIUse=3 WtCom= 9.77D-01 WtEn= 2.33D-02
 Coeff-Com: -0.123D+00 0.144D+00-0.220D+00 0.120D+01
 Coeff-En:   0.000D+00 0.000D+00 0.000D+00 0.100D+01
 Coeff:     -0.121D+00 0.141D+00-0.215D+00 0.119D+01
 Gap=     0.122 Goal=   None    Shift=    0.000
 Gap=     0.119 Goal=   None    Shift=    0.000
 RMSDP=5.09D-04 MaxDP=5.45D-03 DE=-2.67D-04 OVMax= 7.79D-03

 Cycle   5  Pass 1  IDiag  1:
 E= -23.1881583951620     Delta-E=       -0.000093021525 Rises=F Damp=F
 DIIS: error= 3.90D-04 at cycle   5 NSaved=   5.
 NSaved= 5 IEnMin= 5 EnMin= -23.1881583951620     IErMin= 5 ErrMin= 3.90D-04
 ErrMax= 3.90D-04  0.00D+00 EMaxC= 1.00D-01 BMatC= 3.60D-06 BMatP= 1.42D-04
 IDIUse=3 WtCom= 9.96D-01 WtEn= 3.90D-03
 Coeff-Com:  0.265D-02-0.314D-02-0.121D-01-0.191D+00 0.120D+01
 Coeff-En:   0.000D+00 0.000D+00 0.000D+00 0.000D+00 0.100D+01
 Coeff:      0.264D-02-0.313D-02-0.121D-01-0.190D+00 0.120D+01
 Gap=     0.121 Goal=   None    Shift=    0.000
 Gap=     0.118 Goal=   None    Shift=    0.000
 RMSDP=1.04D-04 MaxDP=1.16D-03 DE=-9.30D-05 OVMax= 1.81D-03

 Cycle   6  Pass 1  IDiag  1:
 E= -23.1881612214163     Delta-E=       -0.000002826254 Rises=F Damp=F
 DIIS: error= 3.89D-05 at cycle   6 NSaved=   6.
 NSaved= 6 IEnMin= 6 EnMin= -23.1881612214163     IErMin= 6 ErrMin= 3.89D-05
 ErrMax= 3.89D-05  0.00D+00 EMaxC= 1.00D-01 BMatC= 2.68D-08 BMatP= 3.60D-06
 IDIUse=1 WtCom= 1.00D+00 WtEn= 0.00D+00
 Coeff-Com: -0.328D-03 0.833D-03 0.388D-02 0.185D-01-0.247D+00 0.122D+01
 Coeff:     -0.328D-03 0.833D-03 0.388D-02 0.185D-01-0.247D+00 0.122D+01
 Gap=     0.121 Goal=   None    Shift=    0.000
 Gap=     0.118 Goal=   None    Shift=    0.000
 RMSDP=1.46D-05 MaxDP=1.83D-04 DE=-2.83D-06 OVMax= 3.03D-04

 Cycle   7  Pass 1  IDiag  1:
 E= -23.1881612644769     Delta-E=       -0.000000043061 Rises=F Damp=F
 DIIS: error= 7.88D-06 at cycle   7 NSaved=   7.
 NSaved= 7 IEnMin= 7 EnMin= -23.1881612644769     IErMin= 7 ErrMin= 7.88D-06
 ErrMax= 7.88D-06  0.00D+00 EMaxC= 1.00D-01 BMatC= 1.67D-09 BMatP= 2.68D-08
 IDIUse=1 WtCom= 1.00D+00 WtEn= 0.00D+00
 Coeff-Com:  0.185D-03-0.452D-03-0.150D-02-0.172D-02 0.767D-01-0.624D+00
 Coeff-Com:  0.155D+01
 Coeff:      0.185D-03-0.452D-03-0.150D-02-0.172D-02 0.767D-01-0.624D+00
 Coeff:      0.155D+01
 Gap=     0.121 Goal=   None    Shift=    0.000
 Gap=     0.118 Goal=   None    Shift=    0.000
 RMSDP=5.31D-06 MaxDP=5.02D-05 DE=-4.31D-08 OVMax= 1.11D-04

 Cycle   8  Pass 1  IDiag  1:
 E= -23.1881612689755     Delta-E=       -0.000000004499 Rises=F Damp=F
 DIIS: error= 2.93D-06 at cycle   8 NSaved=   8.
 NSaved= 8 IEnMin= 8 EnMin= -23.1881612689755     IErMin= 8 ErrMin= 2.93D-06
 ErrMax= 2.93D-06  0.00D+00 EMaxC= 1.00D-01 BMatC= 1.20D-10 BMatP= 1.67D-09
 IDIUse=1 WtCom= 1.00D+00 WtEn= 0.00D+00
 Coeff-Com:  0.684D-05-0.133D-04 0.663D-04-0.205D-03 0.365D-02 0.117D-01
 Coeff-Com: -0.265D+00 0.125D+01
 Coeff:      0.684D-05-0.133D-04 0.663D-04-0.205D-03 0.365D-02 0.117D-01
 Coeff:     -0.265D+00 0.125D+01
 Gap=     0.121 Goal=   None    Shift=    0.000
 Gap=     0.118 Goal=   None    Shift=    0.000
 RMSDP=1.29D-06 MaxDP=1.75D-05 DE=-4.50D-09 OVMax= 2.84D-05

 Cycle   9  Pass 1  IDiag  1:
 E= -23.1881612692082     Delta-E=       -0.000000000233 Rises=F Damp=F
 DIIS: error= 4.30D-07 at cycle   9 NSaved=   9.
 NSaved= 9 IEnMin= 9 EnMin= -23.1881612692082     IErMin= 9 ErrMin= 4.30D-07
 ErrMax= 4.30D-07  0.00D+00 EMaxC= 1.00D-01 BMatC= 4.12D-12 BMatP= 1.20D-10
 IDIUse=1 WtCom= 1.00D+00 WtEn= 0.00D+00
 Coeff-Com: -0.351D-04 0.562D-04 0.484D-04 0.168D-03-0.380D-02 0.256D-01
 Coeff-Com: -0.393D-01-0.137D+00 0.115D+01
 Coeff:     -0.351D-04 0.562D-04 0.484D-04 0.168D-03-0.380D-02 0.256D-01
 Coeff:     -0.393D-01-0.137D+00 0.115D+01
 Gap=     0.121 Goal=   None    Shift=    0.000
 Gap=     0.118 Goal=   None    Shift=    0.000
 RMSDP=1.96D-07 MaxDP=1.81D-06 DE=-2.33D-10 OVMax= 3.93D-06

 Cycle  10  Pass 1  IDiag  1:
 E= -23.1881612692160     Delta-E=       -0.000000000008 Rises=F Damp=F
 DIIS: error= 1.83D-07 at cycle  10 NSaved=  10.
 NSaved=10 IEnMin=10 EnMin= -23.1881612692160     IErMin=10 ErrMin= 1.83D-07
 ErrMax= 1.83D-07  0.00D+00 EMaxC= 1.00D-01 BMatC= 6.94D-13 BMatP= 4.12D-12
 IDIUse=1 WtCom= 1.00D+00 WtEn= 0.00D+00
 Coeff-Com: -0.440D-05 0.642D-05-0.207D-04-0.144D-03 0.142D-02-0.956D-02
 Coeff-Com:  0.282D-01-0.371D-01-0.316D+00 0.133D+01
 Coeff:     -0.440D-05 0.642D-05-0.207D-04-0.144D-03 0.142D-02-0.956D-02
 Coeff:      0.282D-01-0.371D-01-0.316D+00 0.133D+01
 Gap=     0.121 Goal=   None    Shift=    0.000
 Gap=     0.118 Goal=   None    Shift=    0.000
 RMSDP=7.01D-08 MaxDP=7.50D-07 DE=-7.84D-12 OVMax= 1.55D-06

 Cycle  11  Pass 1  IDiag  1:
 E= -23.1881612692169     Delta-E=       -0.000000000001 Rises=F Damp=F
 DIIS: error= 2.79D-08 at cycle  11 NSaved=  11.
 NSaved=11 IEnMin=11 EnMin= -23.1881612692169     IErMin=11 ErrMin= 2.79D-08
 ErrMax= 2.79D-08  0.00D+00 EMaxC= 1.00D-01 BMatC= 2.11D-14 BMatP= 6.94D-13
 IDIUse=1 WtCom= 1.00D+00 WtEn= 0.00D+00
 Coeff-Com:  0.774D-06-0.139D-05 0.804D-06 0.176D-04-0.126D-03 0.895D-03
 Coeff-Com: -0.429D-02 0.139D-01 0.217D-01-0.281D+00 0.125D+01
 Coeff:      0.774D-06-0.139D-05 0.804D-06 0.176D-04-0.126D-03 0.895D-03
 Coeff:     -0.429D-02 0.139D-01 0.217D-01-0.281D+00 0.125D+01
 Gap=     0.121 Goal=   None    Shift=    0.000
 Gap=     0.118 Goal=   None    Shift=    0.000
 RMSDP=1.31D-08 MaxDP=1.28D-07 DE=-9.17D-13 OVMax= 3.19D-07

 Cycle  12  Pass 1  IDiag  1:
 E= -23.1881612692170     Delta-E=        0.000000000000 Rises=F Damp=F
 DIIS: error= 4.19D-09 at cycle  12 NSaved=  12.
 NSaved=12 IEnMin=12 EnMin= -23.1881612692170     IErMin=12 ErrMin= 4.19D-09
 ErrMax= 4.19D-09  0.00D+00 EMaxC= 1.00D-01 BMatC= 6.61D-16 BMatP= 2.11D-14
 IDIUse=1 WtCom= 1.00D+00 WtEn= 0.00D+00
 Coeff-Com:  0.333D-06-0.460D-06 0.943D-07 0.531D-06-0.560D-05 0.206D-04
 Coeff-Com:  0.354D-03-0.287D-02 0.504D-02 0.348D-01-0.328D+00 0.129D+01
 Coeff:      0.333D-06-0.460D-06 0.943D-07 0.531D-06-0.560D-05 0.206D-04
 Coeff:      0.354D-03-0.287D-02 0.504D-02 0.348D-01-0.328D+00 0.129D+01
 Gap=     0.121 Goal=   None    Shift=    0.000
 Gap=     0.118 Goal=   None    Shift=    0.000
 RMSDP=2.34D-09 MaxDP=2.54D-08 DE=-2.13D-14 OVMax= 5.99D-08

 SCF Done:  E(UB3LYP) =  -23.1881612692     A.U. after   12 cycles
            NFock= 12  Conv=0.23D-08     -V/T= 2.0052
 <Sx>= 0.0000 <Sy>= 0.0000 <Sz>= 0.5000 <S**2>= 0.7506 S= 0.5003
 <L.S>= 0.000000000000E+00
 KE= 2.306876456491D+01 PE=-6.346567211192D+01 EE= 1.192248844534D+01
 Annihilation of the first spin contaminant:
 S**2 before annihilation     0.7506,   after     0.7500
 Leave Link  502 at Sat Mar 28 20:12:34 2026, MaxMem=    33554432 cpu:         0.0
 (Enter C:\G09W\l601.exe)
 Copying SCF densities to generalized density rwf, IOpCl= 1 IROHF=0.

 **********************************************************************

            Population analysis using the SCF density.

 **********************************************************************

 Orbital symmetries:
 Alpha Orbitals:
       Occupied  (A') (A') (A') (A') (A')
       Virtual   (A') (A") (A') (A") (A') (A') (A') (A') (A") (A')
                 (A') (A") (A') (A') (A') (A') (A')
 Beta  Orbitals:
       Occupied  (A') (A') (A') (A')
       Virtual   (A') (A') (A") (A') (A") (A') (A') (A') (A') (A")
                 (A') (A') (A") (A') (A') (A') (A') (A')
 The electronic state is 2-A'.
 Alpha  occ. eigenvalues --   -4.04125  -1.97540  -0.37557  -0.21023  -0.19591
 Alpha virt. eigenvalues --   -0.07451  -0.06030  -0.03213  -0.00115   0.01539
 Alpha virt. eigenvalues --    0.06684   0.11552   0.12019   0.12285   0.15428
 Alpha virt. eigenvalues --    0.25147   0.28585   0.29763   0.31582   0.48018
 Alpha virt. eigenvalues --    1.17654   1.19379
  Beta  occ. eigenvalues --   -4.03321  -1.97540  -0.36256  -0.19589
  Beta virt. eigenvalues --   -0.07766  -0.05637  -0.04047  -0.02603   0.00014
  Beta virt. eigenvalues --    0.02119   0.06793   0.11478   0.12119   0.12245
  Beta virt. eigenvalues --    0.16796   0.25231   0.29577   0.31460   0.35534
  Beta virt. eigenvalues --    0.50045   1.17668   1.21027
          Condensed to atoms (all electrons):
               1          2          3          4
     1  Li   2.464831   0.378375   0.010855  -0.000697
     2  H    0.378375   0.781241  -0.000031  -0.000024
     3  Be   0.010855  -0.000031   3.494729   0.406889
     4  H   -0.000697  -0.000024   0.406889   0.668465
          Atomic-Atomic Spin Densities.
               1          2          3          4
     1  Li   0.000858  -0.000052   0.009424  -0.001214
     2  H   -0.000052   0.000405   0.000039   0.000000
     3  Be   0.009424   0.000039   0.915348  -0.010330
     4  H   -0.001214   0.000000  -0.010330   0.087655
 Mulliken charges and spin densities:
               1          2
     1  Li   0.146637   0.009016
     2  H   -0.159562   0.000392
     3  Be   0.087559   0.914481
     4  H   -0.074634   0.076112
 Sum of Mulliken charges =   0.00000   1.00000
 Mulliken charges and spin densities with hydrogens summed into heavy atoms:
               1          2
     1  Li  -0.012925   0.009407
     3  Be   0.012925   0.990593
 Electronic spatial extent (au):  <R**2>=            191.2058
 Charge=              0.0000 electrons
 Dipole moment (field-independent basis, Debye):
    X=              4.8805    Y=             -2.3867    Z=              0.0000  Tot=              5.4328
 Quadrupole moment (field-independent basis, Debye-Ang):
   XX=            -17.3428   YY=            -21.1103   ZZ=            -12.4227
   XY=             13.8594   XZ=              0.0000   YZ=              0.0000
 Traceless Quadrupole moment (field-independent basis, Debye-Ang):
   XX=             -0.3842   YY=             -4.1517   ZZ=              4.5359
   XY=             13.8594   XZ=              0.0000   YZ=              0.0000
 Octapole moment (field-independent basis, Debye-Ang**2):
  XXX=              5.9856  YYY=            -43.1582  ZZZ=              0.0000  XYY=             28.2390
  XXY=              0.0977  XXZ=              0.0000  XZZ=              2.2355  YZZ=             -2.5401
  YYZ=              0.0000  XYZ=              0.0000
 Hexadecapole moment (field-independent basis, Debye-Ang**3):
 XXXX=            -67.4735 YYYY=           -520.8001 ZZZZ=            -29.8797 XXXY=             51.5457
 XXXZ=              0.0000 YYYX=            132.8997 YYYZ=              0.0000 ZZZX=              0.0000
 ZZZY=              0.0000 XXYY=           -104.9786 XXZZ=            -15.8438 YYZZ=            -73.4703
 XXYZ=              0.0000 YYXZ=              0.0000 ZZXY=             14.4787
 N-N= 5.286257832455D+00 E-N=-6.346567211305D+01  KE= 2.306876456491D+01
 Symmetry A'   KE= 2.306876456491D+01
 Symmetry A"   KE= 0.000000000000D+00
                          Isotropic Fermi Contact Couplings
        Atom                 a.u.       MegaHertz       Gauss      10(-4) cm-1
     1  Li(7)             -0.00010      -0.18030      -0.06434      -0.06014
     2  H(1)               0.00011       0.51323       0.18313       0.17119
     3  Be(9)              0.21138    -132.82916     -47.39674     -44.30704
     4  H(1)               0.03525     157.54316      56.21532      52.55074
 --------------------------------------------------------
       Center         ----  Spin Dipole Couplings  ----
                      3XX-RR        3YY-RR        3ZZ-RR
 --------------------------------------------------------
     1   Atom       -0.001461      0.003215     -0.001754
     2   Atom       -0.000491      0.001472     -0.000982
     3   Atom        0.102542     -0.041775     -0.060767
     4   Atom        0.020906     -0.008015     -0.012891
 --------------------------------------------------------
                        XY            XZ            YZ
 --------------------------------------------------------
     1   Atom       -0.000868      0.000000      0.000000
     2   Atom       -0.000968      0.000000      0.000000
     3   Atom       -0.055164      0.000000      0.000000
     4   Atom       -0.012683      0.000000      0.000000
 --------------------------------------------------------


 ---------------------------------------------------------------------------------
              Anisotropic Spin Dipole Couplings in Principal Axis System
 ---------------------------------------------------------------------------------

       Atom             a.u.   MegaHertz   Gauss  10(-4) cm-1        Axes

              Baa    -0.0018    -0.364    -0.130    -0.121  0.0000  0.0000  1.0000
     1 Li(7)  Bbb    -0.0016    -0.335    -0.120    -0.112  0.9842  0.1768  0.0000
              Bcc     0.0034     0.699     0.249     0.233 -0.1768  0.9842  0.0000
 
              Baa    -0.0010    -0.524    -0.187    -0.175  0.0000  0.0000  1.0000
     2 H(1)   Bbb    -0.0009    -0.474    -0.169    -0.158  0.9253  0.3793  0.0000
              Bcc     0.0019     0.997     0.356     0.333 -0.3793  0.9253  0.0000
 
              Baa    -0.0608     4.558     1.626     1.520  0.0000  0.0000  1.0000
     3 Be(9)  Bbb    -0.0604     4.534     1.618     1.512  0.3206  0.9472  0.0000
              Bcc     0.1212    -9.092    -3.244    -3.033  0.9472 -0.3206  0.0000
 
              Baa    -0.0129    -6.878    -2.454    -2.294  0.0000  0.0000  1.0000
     4 H(1)   Bbb    -0.0128    -6.824    -2.435    -2.276  0.3523  0.9359  0.0000
              Bcc     0.0257    13.702     4.889     4.570  0.9359 -0.3523  0.0000
 

 ---------------------------------------------------------------------------------

 No NMR shielding tensors so no spin-rotation constants.
 Leave Link  601 at Sat Mar 28 20:12:35 2026, MaxMem=    33554432 cpu:         1.0
 (Enter C:\G09W\l9999.exe)
 1|1|UNPC-INANI_LAP|SP|UB3LYP|3-21G|Be1H2Li1(2)|EMMAN|28-Mar-2026|0||#p
  b3lyp/3-21g||Title Card Required - Distancia +3.20A - Paso 16||0,2|Li
 ,0,4.64474019,1.33044279,0.|H,0,3.11474019,1.33044279,0.|Be,0,6.185408
 61,-2.5667774,0.|H,0,4.99540861,-2.5667774,0.||Version=IA32W-G09RevD.0
 1|State=2-A'|HF=-23.1881613|S2=0.750597|S2-1=0.|S2A=0.75|RMSD=2.342e-0
 09|Dipole=2.130886,-0.1672984,0.|Quadrupole=-7.7100547,4.3377254,3.372
 3293,8.4764135,0.,0.|PG=CS [SG(Be1H2Li1)]||@


 MAN IS A SINGULAR CREATURE.  HE HAS A SET OF GIFTS
 WHICH MAKE HIM UNIQUE AMONG THE ANIMALS: SO THAT, 
 UNLIKE THEM, HE IS NOT A FIGURE IN THE LANDSCAPE --
 HE IS A SHAPER OF THE LANDSCAPE.

                       -- JACOB BRONOWSKI
 Job cpu time:       0 days  0 hours  0 minutes  2.0 seconds.
 File lengths (MBytes):  RWF=      5 Int=      0 D2E=      0 Chk=      1 Scr=      1
 Normal termination of Gaussian 09 at Sat Mar 28 20:12:35 2026.
