 Entering Link 1 = C:\G09W\l1.exe PID=      7572.
  
 Copyright (c) 1988,1990,1992,1993,1995,1998,2003,2009,2013,
            Gaussian, Inc.  All Rights Reserved.
  
 This is part of the Gaussian(R) 09 program.  It is based on
 the Gaussian(R) 03 system (copyright 2003, Gaussian, Inc.),
 the Gaussian(R) 98 system (copyright 1998, Gaussian, Inc.),
 the Gaussian(R) 94 system (copyright 1995, Gaussian, Inc.),
 the Gaussian 92(TM) system (copyright 1992, Gaussian, Inc.),
 the Gaussian 90(TM) system (copyright 1990, Gaussian, Inc.),
 the Gaussian 88(TM) system (copyright 1988, Gaussian, Inc.),
 the Gaussian 86(TM) system (copyright 1986, Carnegie Mellon
 University), and the Gaussian 82(TM) system (copyright 1983,
 Carnegie Mellon University). Gaussian is a federally registered
 trademark of Gaussian, Inc.
  
 This software contains proprietary and confidential information,
 including trade secrets, belonging to Gaussian, Inc.
  
 This software is provided under written license and may be
 used, copied, transmitted, or stored only in accord with that
 written license.
  
 The following legend is applicable only to US Government
 contracts under FAR:
  
                    RESTRICTED RIGHTS LEGEND
  
 Use, reproduction and disclosure by the US Government is
 subject to restrictions as set forth in subparagraphs (a)
 and (c) of the Commercial Computer Software - Restricted
 Rights clause in FAR 52.227-19.
  
 Gaussian, Inc.
 340 Quinnipiac St., Bldg. 40, Wallingford CT 06492
  
  
 ---------------------------------------------------------------
 Warning -- This program may not be used in any manner that
 competes with the business of Gaussian, Inc. or will provide
 assistance to any competitor of Gaussian, Inc.  The licensee
 of this program is prohibited from giving any competitor of
 Gaussian, Inc. access to this program.  By using this program,
 the user acknowledges that Gaussian, Inc. is engaged in the
 business of creating and licensing software in the field of
 computational chemistry and represents and warrants to the
 licensee that it is not a competitor of Gaussian, Inc. and that
 it will not use this program in any manner prohibited above.
 ---------------------------------------------------------------
  

 Cite this work as:
 Gaussian 09, Revision D.01,
 M. J. Frisch, G. W. Trucks, H. B. Schlegel, G. E. Scuseria, 
 M. A. Robb, J. R. Cheeseman, G. Scalmani, V. Barone, B. Mennucci, 
 G. A. Petersson, H. Nakatsuji, M. Caricato, X. Li, H. P. Hratchian, 
 A. F. Izmaylov, J. Bloino, G. Zheng, J. L. Sonnenberg, M. Hada, 
 M. Ehara, K. Toyota, R. Fukuda, J. Hasegawa, M. Ishida, T. Nakajima, 
 Y. Honda, O. Kitao, H. Nakai, T. Vreven, J. A. Montgomery, Jr., 
 J. E. Peralta, F. Ogliaro, M. Bearpark, J. J. Heyd, E. Brothers, 
 K. N. Kudin, V. N. Staroverov, T. Keith, R. Kobayashi, J. Normand, 
 K. Raghavachari, A. Rendell, J. C. Burant, S. S. Iyengar, J. Tomasi, 
 M. Cossi, N. Rega, J. M. Millam, M. Klene, J. E. Knox, J. B. Cross, 
 V. Bakken, C. Adamo, J. Jaramillo, R. Gomperts, R. E. Stratmann, 
 O. Yazyev, A. J. Austin, R. Cammi, C. Pomelli, J. W. Ochterski, 
 R. L. Martin, K. Morokuma, V. G. Zakrzewski, G. A. Voth, 
 P. Salvador, J. J. Dannenberg, S. Dapprich, A. D. Daniels, 
 O. Farkas, J. B. Foresman, J. V. Ortiz, J. Cioslowski, 
 and D. J. Fox, Gaussian, Inc., Wallingford CT, 2013.
 
 ******************************************
 Gaussian 09:  IA32W-G09RevD.01 24-Apr-2013
                28-Mar-2026 
 ******************************************
 %chk=C:\Users\emman\Escritorio\quimica-enlaces\molecula\bn.chk
 --------------
 #p b3lyp/3-21g
 --------------
 1/38=1/1;
 2/12=2,17=6,18=5,40=1/2;
 3/5=5,11=2,16=1,25=1,30=1,74=-5/1,2,3;
 4//1;
 5/5=2,38=5/2;
 6/7=2,8=2,9=2,10=2,28=1/1;
 99/5=1,9=1/99;
 Leave Link    1 at Sat Mar 28 20:12:27 2026, MaxMem=           0 cpu:         1.0
 (Enter C:\G09W\l101.exe)
 ------------------------------------------------
 Title Card Required - Distancia +2.20A - Paso 11
 ------------------------------------------------
 Symbolic Z-matrix:
 Charge =  0 Multiplicity = 2
 Li                    4.64474   1.33044   0. 
 H                     3.11474   1.33044   0. 
 Be                    5.78348  -1.65111   0. 
 H                     4.59348  -1.65111   0. 
 
 NAtoms=      4 NQM=        4 NQMF=       0 NMMI=      0 NMMIF=      0
                NMic=       0 NMicF=      0.
                    Isotopes and Nuclear Properties:
 (Nuclear quadrupole moments (NQMom) in fm**2, nuclear magnetic moments (NMagM)
  in nuclear magnetons)

  Atom         1           2           3           4
 IAtWgt=           7           1           9           1
 AtmWgt=   7.0160045   1.0078250   9.0121825   1.0078250
 NucSpn=           3           1           3           1
 AtZEff=   0.0000000   0.0000000   0.0000000   0.0000000
 NQMom=   -4.0100000   0.0000000   5.2880000   0.0000000
 NMagM=    3.2564240   2.7928460  -1.1779000   2.7928460
 AtZNuc=   3.0000000   1.0000000   4.0000000   1.0000000
 Leave Link  101 at Sat Mar 28 20:12:27 2026, MaxMem=    33554432 cpu:         0.0
 (Enter C:\G09W\l202.exe)
                          Input orientation:                          
 ---------------------------------------------------------------------
 Center     Atomic      Atomic             Coordinates (Angstroms)
 Number     Number       Type             X           Y           Z
 ---------------------------------------------------------------------
      1          3           0        4.644740    1.330443    0.000000
      2          1           0        3.114740    1.330443    0.000000
      3          4           0        5.783479   -1.651107    0.000000
      4          1           0        4.593479   -1.651107    0.000000
 ---------------------------------------------------------------------
                    Distance matrix (angstroms):
                    1          2          3          4
     1  Li   0.000000
     2  H    1.530000   0.000000
     3  Be   3.191608   4.001475   0.000000
     4  H    2.981990   3.328109   1.190000   0.000000
 Stoichiometry    BeH2Li(2)
 Framework group  CS[SG(BeH2Li)]
 Deg. of freedom     5
 Full point group                 CS      NOp   2
 Largest Abelian subgroup         CS      NOp   2
 Largest concise Abelian subgroup C1      NOp   1
                         Standard orientation:                         
 ---------------------------------------------------------------------
 Center     Atomic      Atomic             Coordinates (Angstroms)
 Number     Number       Type             X           Y           Z
 ---------------------------------------------------------------------
      1          3           0        0.282331    1.665285    0.000000
      2          1           0       -1.146970    2.211176    0.000000
      3          4           0        0.282331   -1.526323    0.000000
      4          1           0       -0.829348   -1.101741    0.000000
 ---------------------------------------------------------------------
 Rotational constants (GHZ):    177.8642034     10.8329559     10.2110444
 Leave Link  202 at Sat Mar 28 20:12:27 2026, MaxMem=    33554432 cpu:         0.0
 (Enter C:\G09W\l301.exe)
 Standard basis: 3-21G (6D, 7F)
 Ernie: Thresh=  0.10000D-02 Tol=  0.10000D-05 Strict=F.
 There are    18 symmetry adapted cartesian basis functions of A'  symmetry.
 There are     4 symmetry adapted cartesian basis functions of A"  symmetry.
 There are    18 symmetry adapted basis functions of A'  symmetry.
 There are     4 symmetry adapted basis functions of A"  symmetry.
    22 basis functions,    36 primitive gaussians,    22 cartesian basis functions
     5 alpha electrons        4 beta electrons
       nuclear repulsion energy         6.0263390401 Hartrees.
 IExCor=  402 DFT=T Ex+Corr=B3LYP ExCW=0 ScaHFX=  0.200000
 ScaDFX=  0.800000  0.720000  1.000000  0.810000 ScalE2=  1.000000  1.000000
 IRadAn=      0 IRanWt=     -1 IRanGd=            0 ICorTp=0 IEmpDi=  4
 NAtoms=    4 NActive=    4 NUniq=    4 SFac= 1.00D+00 NAtFMM=   60 NAOKFM=F Big=F
 Integral buffers will be    262144 words long.
 Raffenetti 2 integral format.
 Two-electron integral symmetry is turned on.
 Leave Link  301 at Sat Mar 28 20:12:27 2026, MaxMem=    33554432 cpu:         0.0
 (Enter C:\G09W\l302.exe)
 NPDir=0 NMtPBC=     1 NCelOv=     1 NCel=       1 NClECP=     1 NCelD=      1
         NCelK=      1 NCelE2=     1 NClLst=     1 CellRange=     0.0.
 One-electron integrals computed using PRISM.
 NBasis=    22 RedAO= T EigKep=  6.51D-02  NBF=    18     4
 NBsUse=    22 1.00D-06 EigRej= -1.00D+00 NBFU=    18     4
 Precomputing XC quadrature grid using
 IXCGrd= 4 IRadAn=           0 IRanWt=          -1 IRanGd=           0 AccXCQ= 0.00D+00.
 Generated NRdTot=       0 NPtTot=           0 NUsed=           0 NTot=          16
 NSgBfM=    22    22    22    22    22 MxSgAt=     4 MxSgA2=     4.
 Leave Link  302 at Sat Mar 28 20:12:27 2026, MaxMem=    33554432 cpu:         0.0
 (Enter C:\G09W\l303.exe)
 DipDrv:  MaxL=1.
 Leave Link  303 at Sat Mar 28 20:12:27 2026, MaxMem=    33554432 cpu:         0.0
 (Enter C:\G09W\l401.exe)
 ExpMin= 2.86D-02 ExpMax= 7.19D+01 ExpMxC= 7.19D+01 IAcc=3 IRadAn=         5 AccDes= 0.00D+00
 Harris functional with IExCor=  402 and IRadAn=       5 diagonalized for initial guess.
 HarFok:  IExCor=  402 AccDes= 0.00D+00 IRadAn=         5 IDoV= 1 UseB2=F ITyADJ=14
 ICtDFT=  3500011 ScaDFX=  1.000000  1.000000  1.000000  1.000000
 FoFCou: FMM=F IPFlag=           0 FMFlag=      100000 FMFlg1=           0
         NFxFlg=           0 DoJE=T BraDBF=F KetDBF=T FulRan=T
         wScrn=  0.000000 ICntrl=     500 IOpCl=  0 I1Cent=   200000004 NGrid=           0
         NMat0=    1 NMatS0=      1 NMatT0=    0 NMatD0=    1 NMtDS0=    0 NMtDT0=    0
 Petite list used in FoFCou.
 Harris En= -23.2207391644811    
 JPrj=0 DoOrth=F DoCkMO=F.
 Initial guess orbital symmetries:
 Alpha Orbitals:
       Occupied  (A') (A') (A') (A') (A')
       Virtual   (A') (A") (A') (A") (A') (A') (A') (A") (A') (A')
                 (A') (A") (A') (A') (A') (A') (A')
 Beta  Orbitals:
       Occupied  (A') (A') (A') (A')
       Virtual   (A') (A') (A") (A') (A") (A') (A') (A') (A") (A')
                 (A') (A') (A") (A') (A') (A') (A') (A')
 The electronic state of the initial guess is 2-A'.
 Initial guess <Sx>= 0.0000 <Sy>= 0.0000 <Sz>= 0.5000 <S**2>= 0.7500 S= 0.5000
 Leave Link  401 at Sat Mar 28 20:12:27 2026, MaxMem=    33554432 cpu:         0.0
 (Enter C:\G09W\l502.exe)
 UHF open shell SCF:
 Using DIIS extrapolation, IDIIS=  1040.
 Integral symmetry usage will be decided dynamically.
 Keep R1 and R2 ints in memory in symmetry-blocked form, NReq=914551.
 IVT=       20170 IEndB=       20170 NGot=    33554432 MDV=    33495625
 LenX=    33495625 LenY=    33494700
 Requested convergence on RMS density matrix=1.00D-08 within 128 cycles.
 Requested convergence on MAX density matrix=1.00D-06.
 Requested convergence on             energy=1.00D-06.
 No special actions if energy rises.
 FoFCou: FMM=F IPFlag=           0 FMFlag=           0 FMFlg1=           0
         NFxFlg=           0 DoJE=F BraDBF=F KetDBF=F FulRan=T
         wScrn=  0.000000 ICntrl=     600 IOpCl=  0 I1Cent=           0 NGrid=           0
         NMat0=    1 NMatS0=    253 NMatT0=    0 NMatD0=    1 NMtDS0=    0 NMtDT0=    0
 Petite list used in FoFCou.

 Cycle   1  Pass 1  IDiag  1:
 E= -23.1252265516427    
 DIIS: error= 3.95D-02 at cycle   1 NSaved=   1.
 NSaved= 1 IEnMin= 1 EnMin= -23.1252265516427     IErMin= 1 ErrMin= 3.95D-02
 ErrMax= 3.95D-02  0.00D+00 EMaxC= 1.00D-01 BMatC= 1.10D-01 BMatP= 1.10D-01
 IDIUse=3 WtCom= 6.05D-01 WtEn= 3.95D-01
 Coeff-Com:  0.100D+01
 Coeff-En:   0.100D+01
 Coeff:      0.100D+01
 Gap=    -0.163 Goal=   None    Shift=    0.000
 Gap=    -0.039 Goal=   None    Shift=    0.000
 GapD=   -0.163 DampG=0.250 DampE=0.500 DampFc=0.2500 IDamp=-1.
 Damping current iteration by 2.50D-01
 RMSDP=3.44D-02 MaxDP=3.99D-01              OVMax= 9.78D-01

 Cycle   2  Pass 1  IDiag  1:
 E= -23.1165537446096     Delta-E=        0.008672807033 Rises=F Damp=T
 DIIS: error= 1.72D-02 at cycle   2 NSaved=   2.
 NSaved= 2 IEnMin= 1 EnMin= -23.1252265516427     IErMin= 2 ErrMin= 1.72D-02
 ErrMax= 1.72D-02  0.00D+00 EMaxC= 1.00D-01 BMatC= 2.75D-02 BMatP= 1.10D-01
 IDIUse=3 WtCom= 8.28D-01 WtEn= 1.72D-01
 Coeff-Com: -0.560D+00 0.156D+01
 Coeff-En:   0.615D+00 0.385D+00
 Coeff:     -0.358D+00 0.136D+01
 Gap=    -0.002 Goal=   None    Shift=    0.000
 Gap=    -0.128 Goal=   None    Shift=    0.000
 RMSDP=1.09D-02 MaxDP=7.42D-02 DE= 8.67D-03 OVMax= 9.53D-01

 Cycle   3  Pass 1  IDiag  1:
 E= -23.1575482123763     Delta-E=       -0.040994467767 Rises=F Damp=F
 DIIS: error= 2.09D-02 at cycle   3 NSaved=   3.
 NSaved= 3 IEnMin= 3 EnMin= -23.1575482123763     IErMin= 2 ErrMin= 1.72D-02
 ErrMax= 2.09D-02  0.00D+00 EMaxC= 1.00D-01 BMatC= 2.98D-02 BMatP= 2.75D-02
 IDIUse=3 WtCom= 7.91D-01 WtEn= 2.09D-01
 Coeff-Com: -0.633D+00 0.109D+01 0.545D+00
 Coeff-En:   0.000D+00 0.000D+00 0.100D+01
 Coeff:     -0.500D+00 0.860D+00 0.640D+00
 Gap=     0.103 Goal=   None    Shift=    0.000
 Gap=     0.135 Goal=   None    Shift=    0.000
 RMSDP=5.83D-03 MaxDP=4.49D-02 DE=-4.10D-02 OVMax= 1.38D-01

 Cycle   4  Pass 1  IDiag  1:
 E= -23.1793225606731     Delta-E=       -0.021774348297 Rises=F Damp=F
 DIIS: error= 1.11D-02 at cycle   4 NSaved=   4.
 NSaved= 4 IEnMin= 4 EnMin= -23.1793225606731     IErMin= 4 ErrMin= 1.11D-02
 ErrMax= 1.11D-02  0.00D+00 EMaxC= 1.00D-01 BMatC= 7.30D-03 BMatP= 2.75D-02
 IDIUse=3 WtCom= 8.89D-01 WtEn= 1.11D-01
 Coeff-Com: -0.366D+00 0.483D+00-0.166D+00 0.105D+01
 Coeff-En:   0.000D+00 0.000D+00 0.000D+00 0.100D+01
 Coeff:     -0.325D+00 0.429D+00-0.148D+00 0.104D+01
 Gap=     0.115 Goal=   None    Shift=    0.000
 Gap=     0.112 Goal=   None    Shift=    0.000
 RMSDP=3.15D-03 MaxDP=2.51D-02 DE=-2.18D-02 OVMax= 6.65D-02

 Cycle   5  Pass 1  IDiag  1:
 E= -23.1849877345462     Delta-E=       -0.005665173873 Rises=F Damp=F
 DIIS: error= 5.60D-03 at cycle   5 NSaved=   5.
 NSaved= 5 IEnMin= 5 EnMin= -23.1849877345462     IErMin= 5 ErrMin= 5.60D-03
 ErrMax= 5.60D-03  0.00D+00 EMaxC= 1.00D-01 BMatC= 1.88D-03 BMatP= 7.30D-03
 IDIUse=3 WtCom= 9.44D-01 WtEn= 5.60D-02
 Coeff-Com: -0.559D-01 0.133D+00 0.393D-01-0.917D+00 0.180D+01
 Coeff-En:   0.000D+00 0.000D+00 0.000D+00 0.000D+00 0.100D+01
 Coeff:     -0.528D-01 0.125D+00 0.371D-01-0.866D+00 0.176D+01
 Gap=     0.128 Goal=   None    Shift=    0.000
 Gap=     0.103 Goal=   None    Shift=    0.000
 RMSDP=2.27D-03 MaxDP=1.73D-02 DE=-5.67D-03 OVMax= 4.76D-02

 Cycle   6  Pass 1  IDiag  1:
 E= -23.1868577698687     Delta-E=       -0.001870035323 Rises=F Damp=F
 DIIS: error= 1.59D-03 at cycle   6 NSaved=   6.
 NSaved= 6 IEnMin= 6 EnMin= -23.1868577698687     IErMin= 6 ErrMin= 1.59D-03
 ErrMax= 1.59D-03  0.00D+00 EMaxC= 1.00D-01 BMatC= 1.57D-04 BMatP= 1.88D-03
 IDIUse=3 WtCom= 9.84D-01 WtEn= 1.59D-02
 Coeff-Com: -0.250D-01 0.315D-01 0.245D-01 0.171D+00-0.786D+00 0.158D+01
 Coeff-En:   0.000D+00 0.000D+00 0.000D+00 0.000D+00 0.000D+00 0.100D+01
 Coeff:     -0.246D-01 0.310D-01 0.241D-01 0.168D+00-0.773D+00 0.157D+01
 Gap=     0.106 Goal=   None    Shift=    0.000
 Gap=     0.100 Goal=   None    Shift=    0.000
 RMSDP=6.54D-04 MaxDP=4.32D-03 DE=-1.87D-03 OVMax= 1.21D-02

 Cycle   7  Pass 1  IDiag  1:
 E= -23.1870151579798     Delta-E=       -0.000157388111 Rises=F Damp=F
 DIIS: error= 5.11D-04 at cycle   7 NSaved=   7.
 NSaved= 7 IEnMin= 7 EnMin= -23.1870151579798     IErMin= 7 ErrMin= 5.11D-04
 ErrMax= 5.11D-04  0.00D+00 EMaxC= 1.00D-01 BMatC= 1.19D-05 BMatP= 1.57D-04
 IDIUse=3 WtCom= 9.95D-01 WtEn= 5.11D-03
 Coeff-Com: -0.596D-02 0.483D-02 0.325D-02 0.703D-01-0.259D+00 0.205D+00
 Coeff-Com:  0.981D+00
 Coeff-En:   0.000D+00 0.000D+00 0.000D+00 0.000D+00 0.000D+00 0.000D+00
 Coeff-En:   0.100D+01
 Coeff:     -0.593D-02 0.480D-02 0.323D-02 0.700D-01-0.257D+00 0.204D+00
 Coeff:      0.982D+00
 Gap=     0.104 Goal=   None    Shift=    0.000
 Gap=     0.099 Goal=   None    Shift=    0.000
 RMSDP=1.80D-04 MaxDP=1.63D-03 DE=-1.57D-04 OVMax= 4.09D-03

 Cycle   8  Pass 1  IDiag  1:
 E= -23.1870263390090     Delta-E=       -0.000011181029 Rises=F Damp=F
 DIIS: error= 5.50D-05 at cycle   8 NSaved=   8.
 NSaved= 8 IEnMin= 8 EnMin= -23.1870263390090     IErMin= 8 ErrMin= 5.50D-05
 ErrMax= 5.50D-05  0.00D+00 EMaxC= 1.00D-01 BMatC= 2.00D-07 BMatP= 1.19D-05
 IDIUse=1 WtCom= 1.00D+00 WtEn= 0.00D+00
 Coeff-Com: -0.147D-02 0.153D-02-0.144D-02 0.688D-02 0.837D-02-0.802D-01
 Coeff-Com:  0.466D-01 0.102D+01
 Coeff:     -0.147D-02 0.153D-02-0.144D-02 0.688D-02 0.837D-02-0.802D-01
 Coeff:      0.466D-01 0.102D+01
 Gap=     0.104 Goal=   None    Shift=    0.000
 Gap=     0.099 Goal=   None    Shift=    0.000
 RMSDP=2.43D-05 MaxDP=2.50D-04 DE=-1.12D-05 OVMax= 5.57D-04

 Cycle   9  Pass 1  IDiag  1:
 E= -23.1870265538207     Delta-E=       -0.000000214812 Rises=F Damp=F
 DIIS: error= 3.07D-05 at cycle   9 NSaved=   9.
 NSaved= 9 IEnMin= 9 EnMin= -23.1870265538207     IErMin= 9 ErrMin= 3.07D-05
 ErrMax= 3.07D-05  0.00D+00 EMaxC= 1.00D-01 BMatC= 4.08D-08 BMatP= 2.00D-07
 IDIUse=1 WtCom= 1.00D+00 WtEn= 0.00D+00
 Coeff-Com: -0.329D-04 0.296D-03 0.337D-03-0.953D-03-0.601D-02 0.368D-01
 Coeff-Com: -0.933D-01-0.318D+00 0.138D+01
 Coeff:     -0.329D-04 0.296D-03 0.337D-03-0.953D-03-0.601D-02 0.368D-01
 Coeff:     -0.933D-01-0.318D+00 0.138D+01
 Gap=     0.104 Goal=   None    Shift=    0.000
 Gap=     0.099 Goal=   None    Shift=    0.000
 RMSDP=1.37D-05 MaxDP=1.10D-04 DE=-2.15D-07 OVMax= 3.11D-04

 Cycle  10  Pass 1  IDiag  1:
 E= -23.1870266054475     Delta-E=       -0.000000051627 Rises=F Damp=F
 DIIS: error= 6.91D-06 at cycle  10 NSaved=  10.
 NSaved=10 IEnMin=10 EnMin= -23.1870266054475     IErMin=10 ErrMin= 6.91D-06
 ErrMax= 6.91D-06  0.00D+00 EMaxC= 1.00D-01 BMatC= 2.08D-09 BMatP= 4.08D-08
 IDIUse=1 WtCom= 1.00D+00 WtEn= 0.00D+00
 Coeff-Com: -0.100D-03 0.714D-04 0.129D-03 0.998D-03-0.422D-02 0.648D-02
 Coeff-Com:  0.115D-01-0.343D-01-0.337D+00 0.136D+01
 Coeff:     -0.100D-03 0.714D-04 0.129D-03 0.998D-03-0.422D-02 0.648D-02
 Coeff:      0.115D-01-0.343D-01-0.337D+00 0.136D+01
 Gap=     0.104 Goal=   None    Shift=    0.000
 Gap=     0.099 Goal=   None    Shift=    0.000
 RMSDP=4.32D-06 MaxDP=3.50D-05 DE=-5.16D-08 OVMax= 1.05D-04

 Cycle  11  Pass 1  IDiag  1:
 E= -23.1870266085527     Delta-E=       -0.000000003105 Rises=F Damp=F
 DIIS: error= 1.52D-06 at cycle  11 NSaved=  11.
 NSaved=11 IEnMin=11 EnMin= -23.1870266085527     IErMin=11 ErrMin= 1.52D-06
 ErrMax= 1.52D-06  0.00D+00 EMaxC= 1.00D-01 BMatC= 8.73D-11 BMatP= 2.08D-09
 IDIUse=1 WtCom= 1.00D+00 WtEn= 0.00D+00
 Coeff-Com: -0.116D-04 0.201D-04-0.116D-05-0.110D-03 0.660D-03-0.203D-02
 Coeff-Com: -0.826D-03 0.226D-01-0.981D-02-0.154D+00 0.114D+01
 Coeff:     -0.116D-04 0.201D-04-0.116D-05-0.110D-03 0.660D-03-0.203D-02
 Coeff:     -0.826D-03 0.226D-01-0.981D-02-0.154D+00 0.114D+01
 Gap=     0.104 Goal=   None    Shift=    0.000
 Gap=     0.099 Goal=   None    Shift=    0.000
 RMSDP=4.46D-07 MaxDP=5.66D-06 DE=-3.11D-09 OVMax= 1.21D-05

 Cycle  12  Pass 1  IDiag  1:
 E= -23.1870266086369     Delta-E=       -0.000000000084 Rises=F Damp=F
 DIIS: error= 5.15D-07 at cycle  12 NSaved=  12.
 NSaved=12 IEnMin=12 EnMin= -23.1870266086369     IErMin=12 ErrMin= 5.15D-07
 ErrMax= 5.15D-07  0.00D+00 EMaxC= 1.00D-01 BMatC= 8.47D-12 BMatP= 8.73D-11
 IDIUse=1 WtCom= 1.00D+00 WtEn= 0.00D+00
 Coeff-Com: -0.185D-05 0.450D-05 0.331D-06 0.112D-04-0.823D-04 0.321D-03
 Coeff-Com: -0.847D-03-0.365D-02 0.155D-01-0.265D-01-0.278D+00 0.129D+01
 Coeff:     -0.185D-05 0.450D-05 0.331D-06 0.112D-04-0.823D-04 0.321D-03
 Coeff:     -0.847D-03-0.365D-02 0.155D-01-0.265D-01-0.278D+00 0.129D+01
 Gap=     0.104 Goal=   None    Shift=    0.000
 Gap=     0.099 Goal=   None    Shift=    0.000
 RMSDP=1.77D-07 MaxDP=2.16D-06 DE=-8.42D-11 OVMax= 5.16D-06

 Cycle  13  Pass 1  IDiag  1:
 E= -23.1870266086464     Delta-E=       -0.000000000010 Rises=F Damp=F
 DIIS: error= 1.16D-07 at cycle  13 NSaved=  13.
 NSaved=13 IEnMin=13 EnMin= -23.1870266086464     IErMin=13 ErrMin= 1.16D-07
 ErrMax= 1.16D-07  0.00D+00 EMaxC= 1.00D-01 BMatC= 3.98D-13 BMatP= 8.47D-12
 IDIUse=1 WtCom= 1.00D+00 WtEn= 0.00D+00
 Coeff-Com: -0.124D-05 0.139D-05 0.216D-05-0.229D-05-0.317D-05-0.288D-04
 Coeff-Com:  0.262D-03 0.440D-03-0.639D-02 0.204D-01 0.296D-01-0.423D+00
 Coeff-Com:  0.138D+01
 Coeff:     -0.124D-05 0.139D-05 0.216D-05-0.229D-05-0.317D-05-0.288D-04
 Coeff:      0.262D-03 0.440D-03-0.639D-02 0.204D-01 0.296D-01-0.423D+00
 Coeff:      0.138D+01
 Gap=     0.104 Goal=   None    Shift=    0.000
 Gap=     0.099 Goal=   None    Shift=    0.000
 RMSDP=4.54D-08 MaxDP=5.75D-07 DE=-9.51D-12 OVMax= 1.26D-06

 Cycle  14  Pass 1  IDiag  1:
 E= -23.1870266086469     Delta-E=        0.000000000000 Rises=F Damp=F
 DIIS: error= 3.50D-08 at cycle  14 NSaved=  14.
 NSaved=14 IEnMin=14 EnMin= -23.1870266086469     IErMin=14 ErrMin= 3.50D-08
 ErrMax= 3.50D-08  0.00D+00 EMaxC= 1.00D-01 BMatC= 3.80D-14 BMatP= 3.98D-13
 IDIUse=1 WtCom= 1.00D+00 WtEn= 0.00D+00
 Coeff-Com: -0.356D-07 0.804D-07-0.371D-06 0.256D-05-0.403D-05 0.125D-04
 Coeff-Com: -0.105D-03 0.292D-04 0.110D-02-0.456D-02-0.683D-03 0.939D-01
 Coeff-Com: -0.581D+00 0.149D+01
 Coeff:     -0.356D-07 0.804D-07-0.371D-06 0.256D-05-0.403D-05 0.125D-04
 Coeff:     -0.105D-03 0.292D-04 0.110D-02-0.456D-02-0.683D-03 0.939D-01
 Coeff:     -0.581D+00 0.149D+01
 Gap=     0.104 Goal=   None    Shift=    0.000
 Gap=     0.099 Goal=   None    Shift=    0.000
 RMSDP=1.56D-08 MaxDP=1.95D-07 DE=-4.83D-13 OVMax= 4.78D-07

 Cycle  15  Pass 1  IDiag  1:
 E= -23.1870266086470     Delta-E=        0.000000000000 Rises=F Damp=F
 DIIS: error= 2.22D-09 at cycle  15 NSaved=  15.
 NSaved=15 IEnMin=15 EnMin= -23.1870266086470     IErMin=15 ErrMin= 2.22D-09
 ErrMax= 2.22D-09  0.00D+00 EMaxC= 1.00D-01 BMatC= 1.99D-16 BMatP= 3.80D-14
 IDIUse=1 WtCom= 1.00D+00 WtEn= 0.00D+00
 Coeff-Com:  0.817D-08-0.146D-07 0.243D-07-0.138D-06 0.123D-06-0.703D-06
 Coeff-Com:  0.590D-05-0.141D-04 0.964D-05 0.541D-04-0.520D-03-0.198D-03
 Coeff-Com:  0.278D-01-0.186D+00 0.116D+01
 Coeff:      0.817D-08-0.146D-07 0.243D-07-0.138D-06 0.123D-06-0.703D-06
 Coeff:      0.590D-05-0.141D-04 0.964D-05 0.541D-04-0.520D-03-0.198D-03
 Coeff:      0.278D-01-0.186D+00 0.116D+01
 Gap=     0.104 Goal=   None    Shift=    0.000
 Gap=     0.099 Goal=   None    Shift=    0.000
 RMSDP=1.46D-09 MaxDP=1.59D-08 DE=-8.17D-14 OVMax= 4.43D-08

 SCF Done:  E(UB3LYP) =  -23.1870266086     A.U. after   15 cycles
            NFock= 15  Conv=0.15D-08     -V/T= 2.0048
 <Sx>= 0.0000 <Sy>= 0.0000 <Sz>= 0.5000 <S**2>= 0.7509 S= 0.5004
 <L.S>= 0.000000000000E+00
 KE= 2.307520174296D+01 PE=-6.491838464946D+01 EE= 1.262981725771D+01
 Annihilation of the first spin contaminant:
 S**2 before annihilation     0.7509,   after     0.7500
 Leave Link  502 at Sat Mar 28 20:12:28 2026, MaxMem=    33554432 cpu:         1.0
 (Enter C:\G09W\l601.exe)
 Copying SCF densities to generalized density rwf, IOpCl= 1 IROHF=0.

 **********************************************************************

            Population analysis using the SCF density.

 **********************************************************************

 Orbital symmetries:
 Alpha Orbitals:
       Occupied  (A') (A') (A') (A') (A')
       Virtual   (A') (A") (A') (A") (A') (A') (A') (A") (A') (A')
                 (A') (A") (A') (A') (A') (A') (A')
 Beta  Orbitals:
       Occupied  (A') (A') (A') (A')
       Virtual   (A') (A') (A") (A') (A") (A') (A') (A') (A") (A')
                 (A') (A') (A") (A') (A') (A') (A') (A')
 The electronic state is 2-A'.
 Alpha  occ. eigenvalues --   -4.05047  -1.97167  -0.38422  -0.22104  -0.19263
 Alpha virt. eigenvalues --   -0.08859  -0.07042  -0.02485   0.00712   0.03336
 Alpha virt. eigenvalues --    0.06973   0.10706   0.12307   0.12630   0.16912
 Alpha virt. eigenvalues --    0.25240   0.28663   0.28792   0.32790   0.54201
 Alpha virt. eigenvalues --    1.18361   1.19194
  Beta  occ. eigenvalues --   -4.04270  -1.97157  -0.37006  -0.19296
  Beta virt. eigenvalues --   -0.09384  -0.06600  -0.05222  -0.01916   0.00952
  Beta virt. eigenvalues --    0.04137   0.07080   0.10901   0.12173   0.12935
  Beta virt. eigenvalues --    0.18213   0.25519   0.29591   0.30445   0.36126
  Beta virt. eigenvalues --    0.56300   1.18358   1.20922
          Condensed to atoms (all electrons):
               1          2          3          4
     1  Li   2.466818   0.375882   0.022245  -0.004105
     2  H    0.375882   0.782916   0.000693  -0.000580
     3  Be   0.022245   0.000693   3.498369   0.407985
     4  H   -0.004105  -0.000580   0.407985   0.647655
          Atomic-Atomic Spin Densities.
               1          2          3          4
     1  Li   0.003566  -0.001258   0.024556  -0.002902
     2  H   -0.001258  -0.001097   0.000665  -0.000057
     3  Be   0.024556   0.000665   0.879921  -0.009115
     4  H   -0.002902  -0.000057  -0.009115   0.093831
 Mulliken charges and spin densities:
               1          2
     1  Li   0.139159   0.023962
     2  H   -0.158911  -0.001747
     3  Be   0.070709   0.896027
     4  H   -0.050956   0.081757
 Sum of Mulliken charges =   0.00000   1.00000
 Mulliken charges and spin densities with hydrogens summed into heavy atoms:
               1          2
     1  Li  -0.019752   0.022215
     3  Be   0.019752   0.977785
 Electronic spatial extent (au):  <R**2>=            129.4644
 Charge=              0.0000 electrons
 Dipole moment (field-independent basis, Debye):
    X=              4.6515    Y=             -2.7931    Z=              0.0000  Tot=              5.4256
 Quadrupole moment (field-independent basis, Debye-Ang):
   XX=            -17.4019   YY=            -18.0119   ZZ=            -12.3833
   XY=             10.7504   XZ=              0.0000   YZ=              0.0000
 Traceless Quadrupole moment (field-independent basis, Debye-Ang):
   XX=             -1.4696   YY=             -2.0795   ZZ=              3.5491
   XY=             10.7504   XZ=              0.0000   YZ=              0.0000
 Octapole moment (field-independent basis, Debye-Ang**2):
  XXX=              5.2383  YYY=            -30.9763  ZZZ=              0.0000  XYY=             17.9953
  XXY=             -0.7899  XXZ=              0.0000  XZZ=              2.0441  YZZ=             -2.5802
  YYZ=              0.0000  XYZ=              0.0000
 Hexadecapole moment (field-independent basis, Debye-Ang**3):
 XXXX=            -68.2552 YYYY=           -303.7312 ZZZZ=            -29.5082 XXXY=             40.7182
 XXXZ=              0.0000 YYYX=             75.6317 YYYZ=              0.0000 ZZZX=              0.0000
 ZZZY=              0.0000 XXYY=            -69.5237 XXZZ=            -15.9056 YYZZ=            -47.8176
 XXYZ=              0.0000 YYXZ=              0.0000 ZZXY=             11.4181
 N-N= 6.026339040138D+00 E-N=-6.491838465126D+01  KE= 2.307520174296D+01
 Symmetry A'   KE= 2.307520174296D+01
 Symmetry A"   KE= 0.000000000000D+00
                          Isotropic Fermi Contact Couplings
        Atom                 a.u.       MegaHertz       Gauss      10(-4) cm-1
     1  Li(7)              0.00203       3.52092       1.25635       1.17445
     2  H(1)              -0.00074      -3.29657      -1.17630      -1.09962
     3  Be(9)              0.19887    -124.97117     -44.59282     -41.68589
     4  H(1)               0.03770     168.51044      60.12871      56.20903
 --------------------------------------------------------
       Center         ----  Spin Dipole Couplings  ----
                      3XX-RR        3YY-RR        3ZZ-RR
 --------------------------------------------------------
     1   Atom       -0.002934      0.006765     -0.003831
     2   Atom       -0.000520      0.002394     -0.001874
     3   Atom        0.111626     -0.049375     -0.062251
     4   Atom        0.021392     -0.008342     -0.013049
 --------------------------------------------------------
                        XY            XZ            YZ
 --------------------------------------------------------
     1   Atom       -0.002576      0.000000      0.000000
     2   Atom       -0.002101      0.000000      0.000000
     3   Atom       -0.043965      0.000000      0.000000
     4   Atom       -0.011811      0.000000      0.000000
 --------------------------------------------------------


 ---------------------------------------------------------------------------------
              Anisotropic Spin Dipole Couplings in Principal Axis System
 ---------------------------------------------------------------------------------

       Atom             a.u.   MegaHertz   Gauss  10(-4) cm-1        Axes

              Baa    -0.0038    -0.794    -0.283    -0.265  0.0000  0.0000  1.0000
     1 Li(7)  Bbb    -0.0036    -0.741    -0.265    -0.247  0.9703  0.2418  0.0000
              Bcc     0.0074     1.536     0.548     0.512 -0.2418  0.9703  0.0000
 
              Baa    -0.0019    -1.000    -0.357    -0.334  0.0000  0.0000  1.0000
     2 H(1)   Bbb    -0.0016    -0.864    -0.308    -0.288  0.8860  0.4637  0.0000
              Bcc     0.0035     1.864     0.665     0.622 -0.4637  0.8860  0.0000
 
              Baa    -0.0623     4.669     1.666     1.558  0.0000  0.0000  1.0000
     3 Be(9)  Bbb    -0.0606     4.545     1.622     1.516  0.2473  0.9689  0.0000
              Bcc     0.1228    -9.215    -3.288    -3.074  0.9689 -0.2473  0.0000
 
              Baa    -0.0130    -6.962    -2.484    -2.322  0.0000  0.0000  1.0000
     4 H(1)   Bbb    -0.0125    -6.650    -2.373    -2.218  0.3294  0.9442  0.0000
              Bcc     0.0255    13.612     4.857     4.541  0.9442 -0.3294  0.0000
 

 ---------------------------------------------------------------------------------

 No NMR shielding tensors so no spin-rotation constants.
 Leave Link  601 at Sat Mar 28 20:12:28 2026, MaxMem=    33554432 cpu:         0.0
 (Enter C:\G09W\l9999.exe)
 1|1|UNPC-INANI_LAP|SP|UB3LYP|3-21G|Be1H2Li1(2)|EMMAN|28-Mar-2026|0||#p
  b3lyp/3-21g||Title Card Required - Distancia +2.20A - Paso 11||0,2|Li
 ,0,4.64474019,1.33044279,0.|H,0,3.11474019,1.33044279,0.|Be,0,5.783478
 88,-1.65110688,0.|H,0,4.59347888,-1.65110688,0.||Version=IA32W-G09RevD
 .01|State=2-A'|HF=-23.1870266|S2=0.750891|S2-1=0.|S2A=0.75|RMSD=1.462e
 -009|Dipole=2.1016613,-0.3736048,0.|Quadrupole=-6.4783712,3.8397268,2.
 6386443,6.1088787,0.,0.|PG=CS [SG(Be1H2Li1)]||@


 MAN IS A SINGULAR CREATURE.  HE HAS A SET OF GIFTS
 WHICH MAKE HIM UNIQUE AMONG THE ANIMALS: SO THAT, 
 UNLIKE THEM, HE IS NOT A FIGURE IN THE LANDSCAPE --
 HE IS A SHAPER OF THE LANDSCAPE.

                       -- JACOB BRONOWSKI
 Job cpu time:       0 days  0 hours  0 minutes  2.0 seconds.
 File lengths (MBytes):  RWF=      5 Int=      0 D2E=      0 Chk=      1 Scr=      1
 Normal termination of Gaussian 09 at Sat Mar 28 20:12:28 2026.
