 Entering Link 1 = C:\G09W\l1.exe PID=      5076.
  
 Copyright (c) 1988,1990,1992,1993,1995,1998,2003,2009,2013,
            Gaussian, Inc.  All Rights Reserved.
  
 This is part of the Gaussian(R) 09 program.  It is based on
 the Gaussian(R) 03 system (copyright 2003, Gaussian, Inc.),
 the Gaussian(R) 98 system (copyright 1998, Gaussian, Inc.),
 the Gaussian(R) 94 system (copyright 1995, Gaussian, Inc.),
 the Gaussian 92(TM) system (copyright 1992, Gaussian, Inc.),
 the Gaussian 90(TM) system (copyright 1990, Gaussian, Inc.),
 the Gaussian 88(TM) system (copyright 1988, Gaussian, Inc.),
 the Gaussian 86(TM) system (copyright 1986, Carnegie Mellon
 University), and the Gaussian 82(TM) system (copyright 1983,
 Carnegie Mellon University). Gaussian is a federally registered
 trademark of Gaussian, Inc.
  
 This software contains proprietary and confidential information,
 including trade secrets, belonging to Gaussian, Inc.
  
 This software is provided under written license and may be
 used, copied, transmitted, or stored only in accord with that
 written license.
  
 The following legend is applicable only to US Government
 contracts under FAR:
  
                    RESTRICTED RIGHTS LEGEND
  
 Use, reproduction and disclosure by the US Government is
 subject to restrictions as set forth in subparagraphs (a)
 and (c) of the Commercial Computer Software - Restricted
 Rights clause in FAR 52.227-19.
  
 Gaussian, Inc.
 340 Quinnipiac St., Bldg. 40, Wallingford CT 06492
  
  
 ---------------------------------------------------------------
 Warning -- This program may not be used in any manner that
 competes with the business of Gaussian, Inc. or will provide
 assistance to any competitor of Gaussian, Inc.  The licensee
 of this program is prohibited from giving any competitor of
 Gaussian, Inc. access to this program.  By using this program,
 the user acknowledges that Gaussian, Inc. is engaged in the
 business of creating and licensing software in the field of
 computational chemistry and represents and warrants to the
 licensee that it is not a competitor of Gaussian, Inc. and that
 it will not use this program in any manner prohibited above.
 ---------------------------------------------------------------
  

 Cite this work as:
 Gaussian 09, Revision D.01,
 M. J. Frisch, G. W. Trucks, H. B. Schlegel, G. E. Scuseria, 
 M. A. Robb, J. R. Cheeseman, G. Scalmani, V. Barone, B. Mennucci, 
 G. A. Petersson, H. Nakatsuji, M. Caricato, X. Li, H. P. Hratchian, 
 A. F. Izmaylov, J. Bloino, G. Zheng, J. L. Sonnenberg, M. Hada, 
 M. Ehara, K. Toyota, R. Fukuda, J. Hasegawa, M. Ishida, T. Nakajima, 
 Y. Honda, O. Kitao, H. Nakai, T. Vreven, J. A. Montgomery, Jr., 
 J. E. Peralta, F. Ogliaro, M. Bearpark, J. J. Heyd, E. Brothers, 
 K. N. Kudin, V. N. Staroverov, T. Keith, R. Kobayashi, J. Normand, 
 K. Raghavachari, A. Rendell, J. C. Burant, S. S. Iyengar, J. Tomasi, 
 M. Cossi, N. Rega, J. M. Millam, M. Klene, J. E. Knox, J. B. Cross, 
 V. Bakken, C. Adamo, J. Jaramillo, R. Gomperts, R. E. Stratmann, 
 O. Yazyev, A. J. Austin, R. Cammi, C. Pomelli, J. W. Ochterski, 
 R. L. Martin, K. Morokuma, V. G. Zakrzewski, G. A. Voth, 
 P. Salvador, J. J. Dannenberg, S. Dapprich, A. D. Daniels, 
 O. Farkas, J. B. Foresman, J. V. Ortiz, J. Cioslowski, 
 and D. J. Fox, Gaussian, Inc., Wallingford CT, 2013.
 
 ******************************************
 Gaussian 09:  IA32W-G09RevD.01 24-Apr-2013
                28-Mar-2026 
 ******************************************
 %chk=C:\Users\emman\Escritorio\quimica-enlaces\molecula\bn.chk
 --------------
 #p b3lyp/3-21g
 --------------
 1/38=1/1;
 2/12=2,17=6,18=5,40=1/2;
 3/5=5,11=2,16=1,25=1,30=1,74=-5/1,2,3;
 4//1;
 5/5=2,38=5/2;
 6/7=2,8=2,9=2,10=2,28=1/1;
 99/5=1,9=1/99;
 Leave Link    1 at Sat Mar 28 20:12:42 2026, MaxMem=           0 cpu:         0.0
 (Enter C:\G09W\l101.exe)
 ------------------------------------------------
 Title Card Required - Distancia +4.60A - Paso 23
 ------------------------------------------------
 Symbolic Z-matrix:
 Charge =  0 Multiplicity = 2
 Li                    4.64474   1.33044   0. 
 H                     3.11474   1.33044   0. 
 Be                    6.74811  -3.84872   0. 
 H                     5.55811  -3.84872   0. 
 
 NAtoms=      4 NQM=        4 NQMF=       0 NMMI=      0 NMMIF=      0
                NMic=       0 NMicF=      0.
                    Isotopes and Nuclear Properties:
 (Nuclear quadrupole moments (NQMom) in fm**2, nuclear magnetic moments (NMagM)
  in nuclear magnetons)

  Atom         1           2           3           4
 IAtWgt=           7           1           9           1
 AtmWgt=   7.0160045   1.0078250   9.0121825   1.0078250
 NucSpn=           3           1           3           1
 AtZEff=   0.0000000   0.0000000   0.0000000   0.0000000
 NQMom=   -4.0100000   0.0000000   5.2880000   0.0000000
 NMagM=    3.2564240   2.7928460  -1.1779000   2.7928460
 AtZNuc=   3.0000000   1.0000000   4.0000000   1.0000000
 Leave Link  101 at Sat Mar 28 20:12:42 2026, MaxMem=    33554432 cpu:         0.0
 (Enter C:\G09W\l202.exe)
                          Input orientation:                          
 ---------------------------------------------------------------------
 Center     Atomic      Atomic             Coordinates (Angstroms)
 Number     Number       Type             X           Y           Z
 ---------------------------------------------------------------------
      1          3           0        4.644740    1.330443    0.000000
      2          1           0        3.114740    1.330443    0.000000
      3          4           0        6.748110   -3.848716    0.000000
      4          1           0        5.558110   -3.848716    0.000000
 ---------------------------------------------------------------------
                    Distance matrix (angstroms):
                    1          2          3          4
     1  Li   0.000000
     2  H    1.530000   0.000000
     3  Be   5.589978   6.326537   0.000000
     4  H    5.259081   5.726582   1.190000   0.000000
 Stoichiometry    BeH2Li(2)
 Framework group  CS[SG(BeH2Li)]
 Deg. of freedom     5
 Full point group                 CS      NOp   2
 Largest Abelian subgroup         CS      NOp   2
 Largest concise Abelian subgroup C1      NOp   1
                         Standard orientation:                         
 ---------------------------------------------------------------------
 Center     Atomic      Atomic             Coordinates (Angstroms)
 Number     Number       Type             X           Y           Z
 ---------------------------------------------------------------------
      1          3           0        0.280011    2.991825    0.000000
      2          1           0       -1.137546    3.567526    0.000000
      3          4           0        0.280011   -2.598153    0.000000
      4          1           0       -0.822533   -2.150386    0.000000
 ---------------------------------------------------------------------
 Rotational constants (GHZ):    178.3175827      3.5810220      3.5105227
 Leave Link  202 at Sat Mar 28 20:12:42 2026, MaxMem=    33554432 cpu:         0.0
 (Enter C:\G09W\l301.exe)
 Standard basis: 3-21G (6D, 7F)
 Ernie: Thresh=  0.10000D-02 Tol=  0.10000D-05 Strict=F.
 There are    18 symmetry adapted cartesian basis functions of A'  symmetry.
 There are     4 symmetry adapted cartesian basis functions of A"  symmetry.
 There are    18 symmetry adapted basis functions of A'  symmetry.
 There are     4 symmetry adapted basis functions of A"  symmetry.
    22 basis functions,    36 primitive gaussians,    22 cartesian basis functions
     5 alpha electrons        4 beta electrons
       nuclear repulsion energy         4.6811817320 Hartrees.
 IExCor=  402 DFT=T Ex+Corr=B3LYP ExCW=0 ScaHFX=  0.200000
 ScaDFX=  0.800000  0.720000  1.000000  0.810000 ScalE2=  1.000000  1.000000
 IRadAn=      0 IRanWt=     -1 IRanGd=            0 ICorTp=0 IEmpDi=  4
 NAtoms=    4 NActive=    4 NUniq=    4 SFac= 1.00D+00 NAtFMM=   60 NAOKFM=F Big=F
 Integral buffers will be    262144 words long.
 Raffenetti 2 integral format.
 Two-electron integral symmetry is turned on.
 Leave Link  301 at Sat Mar 28 20:12:42 2026, MaxMem=    33554432 cpu:         0.0
 (Enter C:\G09W\l302.exe)
 NPDir=0 NMtPBC=     1 NCelOv=     1 NCel=       1 NClECP=     1 NCelD=      1
         NCelK=      1 NCelE2=     1 NClLst=     1 CellRange=     0.0.
 One-electron integrals computed using PRISM.
 NBasis=    22 RedAO= T EigKep=  9.43D-02  NBF=    18     4
 NBsUse=    22 1.00D-06 EigRej= -1.00D+00 NBFU=    18     4
 Precomputing XC quadrature grid using
 IXCGrd= 4 IRadAn=           0 IRanWt=          -1 IRanGd=           0 AccXCQ= 0.00D+00.
 Generated NRdTot=       0 NPtTot=           0 NUsed=           0 NTot=          16
 NSgBfM=    22    22    22    22    22 MxSgAt=     4 MxSgA2=     4.
 Leave Link  302 at Sat Mar 28 20:12:42 2026, MaxMem=    33554432 cpu:         0.0
 (Enter C:\G09W\l303.exe)
 DipDrv:  MaxL=1.
 Leave Link  303 at Sat Mar 28 20:12:42 2026, MaxMem=    33554432 cpu:         0.0
 (Enter C:\G09W\l401.exe)
 ExpMin= 2.86D-02 ExpMax= 7.19D+01 ExpMxC= 7.19D+01 IAcc=3 IRadAn=         5 AccDes= 0.00D+00
 Harris functional with IExCor=  402 and IRadAn=       5 diagonalized for initial guess.
 HarFok:  IExCor=  402 AccDes= 0.00D+00 IRadAn=         5 IDoV= 1 UseB2=F ITyADJ=14
 ICtDFT=  3500011 ScaDFX=  1.000000  1.000000  1.000000  1.000000
 FoFCou: FMM=F IPFlag=           0 FMFlag=      100000 FMFlg1=           0
         NFxFlg=           0 DoJE=T BraDBF=F KetDBF=T FulRan=T
         wScrn=  0.000000 ICntrl=     500 IOpCl=  0 I1Cent=   200000004 NGrid=           0
         NMat0=    1 NMatS0=      1 NMatT0=    0 NMatD0=    1 NMtDS0=    0 NMtDT0=    0
 Petite list used in FoFCou.
 Harris En= -23.2208345868157    
 JPrj=0 DoOrth=F DoCkMO=F.
 Initial guess orbital symmetries:
 Alpha Orbitals:
       Occupied  (A') (A') (A') (A') (A')
       Virtual   (A') (A") (A') (A") (A') (A') (A') (A") (A') (A')
                 (A') (A") (A') (A') (A') (A') (A')
 Beta  Orbitals:
       Occupied  (A') (A') (A') (A')
       Virtual   (A') (A') (A") (A') (A") (A') (A') (A') (A") (A')
                 (A') (A') (A") (A') (A') (A') (A') (A')
 The electronic state of the initial guess is 2-A'.
 Initial guess <Sx>= 0.0000 <Sy>= 0.0000 <Sz>= 0.5000 <S**2>= 0.7500 S= 0.5000
 Leave Link  401 at Sat Mar 28 20:12:42 2026, MaxMem=    33554432 cpu:         0.0
 (Enter C:\G09W\l502.exe)
 UHF open shell SCF:
 Using DIIS extrapolation, IDIIS=  1040.
 Integral symmetry usage will be decided dynamically.
 Keep R1 and R2 ints in memory in symmetry-blocked form, NReq=914551.
 IVT=       20170 IEndB=       20170 NGot=    33554432 MDV=    33495625
 LenX=    33495625 LenY=    33494700
 Requested convergence on RMS density matrix=1.00D-08 within 128 cycles.
 Requested convergence on MAX density matrix=1.00D-06.
 Requested convergence on             energy=1.00D-06.
 No special actions if energy rises.
 FoFCou: FMM=F IPFlag=           0 FMFlag=           0 FMFlg1=           0
         NFxFlg=           0 DoJE=F BraDBF=F KetDBF=F FulRan=T
         wScrn=  0.000000 ICntrl=     600 IOpCl=  0 I1Cent=           0 NGrid=           0
         NMat0=    1 NMatS0=    253 NMatT0=    0 NMatD0=    1 NMtDS0=    0 NMtDT0=    0
 Petite list used in FoFCou.

 Cycle   1  Pass 1  IDiag  1:
 E= -23.1324549198518    
 DIIS: error= 4.91D-02 at cycle   1 NSaved=   1.
 NSaved= 1 IEnMin= 1 EnMin= -23.1324549198518     IErMin= 1 ErrMin= 4.91D-02
 ErrMax= 4.91D-02  0.00D+00 EMaxC= 1.00D-01 BMatC= 1.06D-01 BMatP= 1.06D-01
 IDIUse=3 WtCom= 5.09D-01 WtEn= 4.91D-01
 Coeff-Com:  0.100D+01
 Coeff-En:   0.100D+01
 Coeff:      0.100D+01
 Gap=     0.152 Goal=   None    Shift=    0.000
 Gap=     0.017 Goal=   None    Shift=    0.000
 GapD=    0.017 DampG=0.250 DampE=0.500 DampFc=0.2500 IDamp=-1.
 Damping current iteration by 2.50D-01
 RMSDP=2.08D-02 MaxDP=1.79D-01              OVMax= 3.60D-01

 Cycle   2  Pass 1  IDiag  1:
 E= -23.1504647741834     Delta-E=       -0.018009854332 Rises=F Damp=T
 DIIS: error= 2.87D-02 at cycle   2 NSaved=   2.
 NSaved= 2 IEnMin= 2 EnMin= -23.1504647741834     IErMin= 2 ErrMin= 2.87D-02
 ErrMax= 2.87D-02  0.00D+00 EMaxC= 1.00D-01 BMatC= 4.02D-02 BMatP= 1.06D-01
 IDIUse=3 WtCom= 7.13D-01 WtEn= 2.87D-01
 Coeff-Com: -0.157D+01 0.257D+01
 Coeff-En:   0.000D+00 0.100D+01
 Coeff:     -0.112D+01 0.212D+01
 Gap=     0.129 Goal=   None    Shift=    0.000
 Gap=     0.125 Goal=   None    Shift=    0.000
 RMSDP=9.61D-03 MaxDP=9.74D-02 DE=-1.80D-02 OVMax= 1.63D-01

 Cycle   3  Pass 1  IDiag  1:
 E= -23.1884575213633     Delta-E=       -0.037992747180 Rises=F Damp=F
 DIIS: error= 4.09D-03 at cycle   3 NSaved=   3.
 NSaved= 3 IEnMin= 3 EnMin= -23.1884575213633     IErMin= 3 ErrMin= 4.09D-03
 ErrMax= 4.09D-03  0.00D+00 EMaxC= 1.00D-01 BMatC= 3.45D-04 BMatP= 4.02D-02
 IDIUse=3 WtCom= 9.59D-01 WtEn= 4.09D-02
 Coeff-Com: -0.378D+00 0.657D+00 0.721D+00
 Coeff-En:   0.000D+00 0.000D+00 0.100D+01
 Coeff:     -0.362D+00 0.630D+00 0.733D+00
 Gap=     0.140 Goal=   None    Shift=    0.000
 Gap=     0.135 Goal=   None    Shift=    0.000
 RMSDP=8.88D-04 MaxDP=7.90D-03 DE=-3.80D-02 OVMax= 1.21D-02

 Cycle   4  Pass 1  IDiag  1:
 E= -23.1886363875777     Delta-E=       -0.000178866214 Rises=F Damp=F
 DIIS: error= 1.28D-03 at cycle   4 NSaved=   4.
 NSaved= 4 IEnMin= 4 EnMin= -23.1886363875777     IErMin= 4 ErrMin= 1.28D-03
 ErrMax= 1.28D-03  0.00D+00 EMaxC= 1.00D-01 BMatC= 4.37D-05 BMatP= 3.45D-04
 IDIUse=3 WtCom= 9.87D-01 WtEn= 1.28D-02
 Coeff-Com: -0.888D-01 0.104D+00-0.137D+00 0.112D+01
 Coeff-En:   0.000D+00 0.000D+00 0.000D+00 0.100D+01
 Coeff:     -0.877D-01 0.103D+00-0.135D+00 0.112D+01
 Gap=     0.137 Goal=   None    Shift=    0.000
 Gap=     0.132 Goal=   None    Shift=    0.000
 RMSDP=2.74D-04 MaxDP=2.62D-03 DE=-1.79D-04 OVMax= 3.88D-03

 Cycle   5  Pass 1  IDiag  1:
 E= -23.1886626857313     Delta-E=       -0.000026298154 Rises=F Damp=F
 DIIS: error= 1.88D-04 at cycle   5 NSaved=   5.
 NSaved= 5 IEnMin= 5 EnMin= -23.1886626857313     IErMin= 5 ErrMin= 1.88D-04
 ErrMax= 1.88D-04  0.00D+00 EMaxC= 1.00D-01 BMatC= 1.07D-06 BMatP= 4.37D-05
 IDIUse=3 WtCom= 9.98D-01 WtEn= 1.88D-03
 Coeff-Com:  0.211D-02-0.235D-02-0.121D-01-0.218D+00 0.123D+01
 Coeff-En:   0.000D+00 0.000D+00 0.000D+00 0.000D+00 0.100D+01
 Coeff:      0.211D-02-0.234D-02-0.121D-01-0.218D+00 0.123D+01
 Gap=     0.136 Goal=   None    Shift=    0.000
 Gap=     0.132 Goal=   None    Shift=    0.000
 RMSDP=5.83D-05 MaxDP=4.27D-04 DE=-2.63D-05 OVMax= 1.13D-03

 Cycle   6  Pass 1  IDiag  1:
 E= -23.1886636081458     Delta-E=       -0.000000922414 Rises=F Damp=F
 DIIS: error= 2.09D-05 at cycle   6 NSaved=   6.
 NSaved= 6 IEnMin= 6 EnMin= -23.1886636081458     IErMin= 6 ErrMin= 2.09D-05
 ErrMax= 2.09D-05  0.00D+00 EMaxC= 1.00D-01 BMatC= 1.40D-08 BMatP= 1.07D-06
 IDIUse=1 WtCom= 1.00D+00 WtEn= 0.00D+00
 Coeff-Com: -0.347D-03 0.104D-02 0.152D-02-0.121D-01-0.100D+00 0.111D+01
 Coeff:     -0.347D-03 0.104D-02 0.152D-02-0.121D-01-0.100D+00 0.111D+01
 Gap=     0.136 Goal=   None    Shift=    0.000
 Gap=     0.132 Goal=   None    Shift=    0.000
 RMSDP=9.23D-06 MaxDP=7.22D-05 DE=-9.22D-07 OVMax= 1.63D-04

 Cycle   7  Pass 1  IDiag  1:
 E= -23.1886636240435     Delta-E=       -0.000000015898 Rises=F Damp=F
 DIIS: error= 2.10D-06 at cycle   7 NSaved=   7.
 NSaved= 7 IEnMin= 7 EnMin= -23.1886636240435     IErMin= 7 ErrMin= 2.10D-06
 ErrMax= 2.10D-06  0.00D+00 EMaxC= 1.00D-01 BMatC= 2.74D-10 BMatP= 1.40D-08
 IDIUse=1 WtCom= 1.00D+00 WtEn= 0.00D+00
 Coeff-Com:  0.429D-03-0.726D-03 0.843D-04 0.560D-02-0.455D-02-0.235D+00
 Coeff-Com:  0.123D+01
 Coeff:      0.429D-03-0.726D-03 0.843D-04 0.560D-02-0.455D-02-0.235D+00
 Coeff:      0.123D+01
 Gap=     0.136 Goal=   None    Shift=    0.000
 Gap=     0.132 Goal=   None    Shift=    0.000
 RMSDP=1.94D-06 MaxDP=1.87D-05 DE=-1.59D-08 OVMax= 5.55D-05

 Cycle   8  Pass 1  IDiag  1:
 E= -23.1886636247391     Delta-E=       -0.000000000696 Rises=F Damp=F
 DIIS: error= 1.38D-06 at cycle   8 NSaved=   8.
 NSaved= 8 IEnMin= 8 EnMin= -23.1886636247391     IErMin= 8 ErrMin= 1.38D-06
 ErrMax= 1.38D-06  0.00D+00 EMaxC= 1.00D-01 BMatC= 5.17D-11 BMatP= 2.74D-10
 IDIUse=1 WtCom= 1.00D+00 WtEn= 0.00D+00
 Coeff-Com:  0.223D-04-0.320D-04-0.240D-04-0.127D-03 0.391D-02 0.163D-01
 Coeff-Com: -0.382D+00 0.136D+01
 Coeff:      0.223D-04-0.320D-04-0.240D-04-0.127D-03 0.391D-02 0.163D-01
 Coeff:     -0.382D+00 0.136D+01
 Gap=     0.136 Goal=   None    Shift=    0.000
 Gap=     0.132 Goal=   None    Shift=    0.000
 RMSDP=6.43D-07 MaxDP=6.11D-06 DE=-6.96D-10 OVMax= 1.67D-05

 Cycle   9  Pass 1  IDiag  1:
 E= -23.1886636248108     Delta-E=       -0.000000000072 Rises=F Damp=F
 DIIS: error= 6.93D-08 at cycle   9 NSaved=   9.
 NSaved= 9 IEnMin= 9 EnMin= -23.1886636248108     IErMin= 9 ErrMin= 6.93D-08
 ErrMax= 6.93D-08  0.00D+00 EMaxC= 1.00D-01 BMatC= 3.01D-13 BMatP= 5.17D-11
 IDIUse=1 WtCom= 1.00D+00 WtEn= 0.00D+00
 Coeff-Com: -0.175D-04 0.281D-04-0.179D-05-0.144D-03-0.290D-04 0.864D-02
 Coeff-Com: -0.375D-01-0.156D-01 0.104D+01
 Coeff:     -0.175D-04 0.281D-04-0.179D-05-0.144D-03-0.290D-04 0.864D-02
 Coeff:     -0.375D-01-0.156D-01 0.104D+01
 Gap=     0.136 Goal=   None    Shift=    0.000
 Gap=     0.132 Goal=   None    Shift=    0.000
 RMSDP=6.11D-08 MaxDP=6.52D-07 DE=-7.17D-11 OVMax= 1.52D-06

 Cycle  10  Pass 1  IDiag  1:
 E= -23.1886636248114     Delta-E=       -0.000000000001 Rises=F Damp=F
 DIIS: error= 5.65D-08 at cycle  10 NSaved=  10.
 NSaved=10 IEnMin=10 EnMin= -23.1886636248114     IErMin=10 ErrMin= 5.65D-08
 ErrMax= 5.65D-08  0.00D+00 EMaxC= 1.00D-01 BMatC= 6.53D-14 BMatP= 3.01D-13
 IDIUse=1 WtCom= 1.00D+00 WtEn= 0.00D+00
 Coeff-Com: -0.295D-05 0.388D-05 0.270D-05 0.199D-04-0.115D-03-0.228D-02
 Coeff-Com:  0.216D-01-0.459D-01-0.254D+00 0.128D+01
 Coeff:     -0.295D-05 0.388D-05 0.270D-05 0.199D-04-0.115D-03-0.228D-02
 Coeff:      0.216D-01-0.459D-01-0.254D+00 0.128D+01
 Gap=     0.136 Goal=   None    Shift=    0.000
 Gap=     0.132 Goal=   None    Shift=    0.000
 RMSDP=1.77D-08 MaxDP=1.63D-07 DE=-6.15D-13 OVMax= 2.54D-07

 Cycle  11  Pass 1  IDiag  1:
 E= -23.1886636248115     Delta-E=        0.000000000000 Rises=F Damp=F
 DIIS: error= 1.75D-08 at cycle  11 NSaved=  11.
 NSaved=11 IEnMin=11 EnMin= -23.1886636248115     IErMin=11 ErrMin= 1.75D-08
 ErrMax= 1.75D-08  0.00D+00 EMaxC= 1.00D-01 BMatC= 4.65D-15 BMatP= 6.53D-14
 IDIUse=1 WtCom= 1.00D+00 WtEn= 0.00D+00
 Coeff-Com: -0.251D-06 0.434D-06-0.163D-05-0.589D-05 0.552D-04 0.443D-03
 Coeff-Com: -0.657D-02 0.183D-01 0.364D-01-0.396D+00 0.135D+01
 Coeff:     -0.251D-06 0.434D-06-0.163D-05-0.589D-05 0.552D-04 0.443D-03
 Coeff:     -0.657D-02 0.183D-01 0.364D-01-0.396D+00 0.135D+01
 Gap=     0.136 Goal=   None    Shift=    0.000
 Gap=     0.132 Goal=   None    Shift=    0.000
 RMSDP=4.46D-09 MaxDP=6.29D-08 DE=-4.26D-14 OVMax= 8.59D-08

 SCF Done:  E(UB3LYP) =  -23.1886636248     A.U. after   11 cycles
            NFock= 11  Conv=0.45D-08     -V/T= 2.0052
 <Sx>= 0.0000 <Sy>= 0.0000 <Sz>= 0.5000 <S**2>= 0.7505 S= 0.5003
 <L.S>= 0.000000000000E+00
 KE= 2.306866052826D+01 PE=-6.228280736883D+01 EE= 1.134430148378D+01
 Annihilation of the first spin contaminant:
 S**2 before annihilation     0.7505,   after     0.7500
 Leave Link  502 at Sat Mar 28 20:12:43 2026, MaxMem=    33554432 cpu:         1.0
 (Enter C:\G09W\l601.exe)
 Copying SCF densities to generalized density rwf, IOpCl= 1 IROHF=0.

 **********************************************************************

            Population analysis using the SCF density.

 **********************************************************************

 Orbital symmetries:
 Alpha Orbitals:
       Occupied  (A') (A') (A') (A') (A')
       Virtual   (A') (A") (A') (A") (A') (A') (A') (A") (A') (A')
                 (A') (A") (A') (A') (A') (A') (A')
 Beta  Orbitals:
       Occupied  (A') (A') (A') (A')
       Virtual   (A') (A') (A") (A') (A") (A') (A') (A') (A") (A')
                 (A') (A') (A") (A') (A') (A') (A') (A')
 The electronic state is 2-A'.
 Alpha  occ. eigenvalues --   -4.03470  -1.97607  -0.37027  -0.20320  -0.19676
 Alpha virt. eigenvalues --   -0.06092  -0.05338  -0.03944  -0.00456   0.00093
 Alpha virt. eigenvalues --    0.06723   0.11146   0.12151   0.12363   0.15448
 Alpha virt. eigenvalues --    0.25195   0.28671   0.29671   0.30910   0.45024
 Alpha virt. eigenvalues --    1.16977   1.19369
  Beta  occ. eigenvalues --   -4.02654  -1.97607  -0.35772  -0.19675
  Beta virt. eigenvalues --   -0.06507  -0.04933  -0.03190  -0.03052  -0.00432
  Beta virt. eigenvalues --    0.00370   0.06738   0.11227   0.12147   0.12544
  Beta virt. eigenvalues --    0.16688   0.25176   0.29696   0.30998   0.35523
  Beta virt. eigenvalues --    0.47075   1.17019   1.20936
          Condensed to atoms (all electrons):
               1          2          3          4
     1  Li   2.463074   0.379039   0.002766   0.000452
     2  H    0.379039   0.780077  -0.000011   0.000000
     3  Be   0.002766  -0.000011   3.501605   0.405517
     4  H    0.000452   0.000000   0.405517   0.679717
          Atomic-Atomic Spin Densities.
               1          2          3          4
     1  Li   0.000168   0.000016   0.002021  -0.000330
     2  H    0.000016   0.000136   0.000000   0.000000
     3  Be   0.002021   0.000000   0.934435  -0.011968
     4  H   -0.000330   0.000000  -0.011968   0.085783
 Mulliken charges and spin densities:
               1          2
     1  Li   0.154669   0.001875
     2  H   -0.159105   0.000152
     3  Be   0.090123   0.924488
     4  H   -0.085686   0.073485
 Sum of Mulliken charges =   0.00000   1.00000
 Mulliken charges and spin densities with hydrogens summed into heavy atoms:
               1          2
     1  Li  -0.004436   0.002027
     3  Be   0.004436   0.997973
 Electronic spatial extent (au):  <R**2>=            304.0179
 Charge=              0.0000 electrons
 Dipole moment (field-independent basis, Debye):
    X=              4.9937    Y=             -2.2118    Z=              0.0000  Tot=              5.4616
 Quadrupole moment (field-independent basis, Debye-Ang):
   XX=            -17.1989   YY=            -25.2271   ZZ=            -12.3701
   XY=             17.8831   XZ=              0.0000   YZ=              0.0000
 Traceless Quadrupole moment (field-independent basis, Debye-Ang):
   XX=              1.0664   YY=             -6.9617   ZZ=              5.8953
   XY=             17.8831   XZ=              0.0000   YZ=              0.0000
 Octapole moment (field-independent basis, Debye-Ang**2):
  XXX=              6.4542  YYY=            -69.4053  ZZZ=              0.0000  XYY=             48.7143
  XXY=              0.5930  XXZ=              0.0000  XZZ=              2.3589  YZZ=             -2.8565
  YYZ=              0.0000  XYZ=              0.0000
 Hexadecapole moment (field-independent basis, Debye-Ang**3):
 XXXX=            -66.1996 YYYY=           -961.2381 ZZZZ=            -29.4936 XXXY=             65.9969
 XXXZ=              0.0000 YYYX=            254.8933 YYYZ=              0.0000 ZZZX=              0.0000
 ZZZY=              0.0000 XXYY=           -168.2506 XXZZ=            -15.5745 YYZZ=           -119.5967
 XXYZ=              0.0000 YYXZ=              0.0000 ZZXY=             18.5753
 N-N= 4.681181731984D+00 E-N=-6.228280734594D+01  KE= 2.306866052826D+01
 Symmetry A'   KE= 2.306866052826D+01
 Symmetry A"   KE= 0.000000000000D+00
                          Isotropic Fermi Contact Couplings
        Atom                 a.u.       MegaHertz       Gauss      10(-4) cm-1
     1  Li(7)             -0.00005      -0.08468      -0.03022      -0.02825
     2  H(1)               0.00005       0.22292       0.07954       0.07436
     3  Be(9)              0.21734    -136.57474     -48.73326     -45.55643
     4  H(1)               0.03415     152.62558      54.46060      50.91041
 --------------------------------------------------------
       Center         ----  Spin Dipole Couplings  ----
                      3XX-RR        3YY-RR        3ZZ-RR
 --------------------------------------------------------
     1   Atom       -0.000682      0.001429     -0.000747
     2   Atom       -0.000344      0.000835     -0.000491
     3   Atom        0.097220     -0.037083     -0.060137
     4   Atom        0.020469     -0.007598     -0.012871
 --------------------------------------------------------
                        XY            XZ            YZ
 --------------------------------------------------------
     1   Atom       -0.000255      0.000000      0.000000
     2   Atom       -0.000412      0.000000      0.000000
     3   Atom       -0.060128      0.000000      0.000000
     4   Atom       -0.013244      0.000000      0.000000
 --------------------------------------------------------


 ---------------------------------------------------------------------------------
              Anisotropic Spin Dipole Couplings in Principal Axis System
 ---------------------------------------------------------------------------------

       Atom             a.u.   MegaHertz   Gauss  10(-4) cm-1        Axes

              Baa    -0.0007    -0.155    -0.055    -0.052  0.0000  0.0000  1.0000
     1 Li(7)  Bbb    -0.0007    -0.148    -0.053    -0.049  0.9930  0.1183  0.0000
              Bcc     0.0015     0.303     0.108     0.101 -0.1183  0.9930  0.0000
 
              Baa    -0.0005    -0.262    -0.093    -0.087  0.0000  0.0000  1.0000
     2 H(1)   Bbb    -0.0005    -0.253    -0.090    -0.084  0.9539  0.3002  0.0000
              Bcc     0.0010     0.515     0.184     0.172 -0.3002  0.9539  0.0000
 
              Baa    -0.0601     4.511     1.610     1.505  0.0000  0.0000  1.0000
     3 Be(9)  Bbb    -0.0601     4.506     1.608     1.503  0.3571  0.9341  0.0000
              Bcc     0.1202    -9.017    -3.217    -3.008  0.9341 -0.3571  0.0000
 
              Baa    -0.0129    -6.867    -2.450    -2.291  0.0000  0.0000  1.0000
     4 H(1)   Bbb    -0.0129    -6.862    -2.448    -2.289  0.3693  0.9293  0.0000
              Bcc     0.0257    13.729     4.899     4.580  0.9293 -0.3693  0.0000
 

 ---------------------------------------------------------------------------------

 No NMR shielding tensors so no spin-rotation constants.
 Leave Link  601 at Sat Mar 28 20:12:43 2026, MaxMem=    33554432 cpu:         0.0
 (Enter C:\G09W\l9999.exe)
 1|1|UNPC-INANI_LAP|SP|UB3LYP|3-21G|Be1H2Li1(2)|EMMAN|28-Mar-2026|0||#p
  b3lyp/3-21g||Title Card Required - Distancia +4.60A - Paso 23||0,2|Li
 ,0,4.64474019,1.33044279,0.|H,0,3.11474019,1.33044279,0.|Be,0,6.748110
 22,-3.84871612,0.|H,0,5.55811022,-3.84871612,0.||Version=IA32W-G09RevD
 .01|State=2-A'|HF=-23.1886636|S2=0.75053|S2-1=0.|S2A=0.75|RMSD=4.465e-
 009|Dipole=2.1477219,-0.0669794,0.|Quadrupole=-9.322494,4.9395057,4.38
 29883,11.6115927,0.,0.|PG=CS [SG(Be1H2Li1)]||@


 MAN IS A SINGULAR CREATURE.  HE HAS A SET OF GIFTS
 WHICH MAKE HIM UNIQUE AMONG THE ANIMALS: SO THAT, 
 UNLIKE THEM, HE IS NOT A FIGURE IN THE LANDSCAPE --
 HE IS A SHAPER OF THE LANDSCAPE.

                       -- JACOB BRONOWSKI
 Job cpu time:       0 days  0 hours  0 minutes  1.0 seconds.
 File lengths (MBytes):  RWF=      5 Int=      0 D2E=      0 Chk=      1 Scr=      1
 Normal termination of Gaussian 09 at Sat Mar 28 20:12:43 2026.
