 Entering Link 1 = C:\G09W\l1.exe PID=      3936.
  
 Copyright (c) 1988,1990,1992,1993,1995,1998,2003,2009,2013,
            Gaussian, Inc.  All Rights Reserved.
  
 This is part of the Gaussian(R) 09 program.  It is based on
 the Gaussian(R) 03 system (copyright 2003, Gaussian, Inc.),
 the Gaussian(R) 98 system (copyright 1998, Gaussian, Inc.),
 the Gaussian(R) 94 system (copyright 1995, Gaussian, Inc.),
 the Gaussian 92(TM) system (copyright 1992, Gaussian, Inc.),
 the Gaussian 90(TM) system (copyright 1990, Gaussian, Inc.),
 the Gaussian 88(TM) system (copyright 1988, Gaussian, Inc.),
 the Gaussian 86(TM) system (copyright 1986, Carnegie Mellon
 University), and the Gaussian 82(TM) system (copyright 1983,
 Carnegie Mellon University). Gaussian is a federally registered
 trademark of Gaussian, Inc.
  
 This software contains proprietary and confidential information,
 including trade secrets, belonging to Gaussian, Inc.
  
 This software is provided under written license and may be
 used, copied, transmitted, or stored only in accord with that
 written license.
  
 The following legend is applicable only to US Government
 contracts under FAR:
  
                    RESTRICTED RIGHTS LEGEND
  
 Use, reproduction and disclosure by the US Government is
 subject to restrictions as set forth in subparagraphs (a)
 and (c) of the Commercial Computer Software - Restricted
 Rights clause in FAR 52.227-19.
  
 Gaussian, Inc.
 340 Quinnipiac St., Bldg. 40, Wallingford CT 06492
  
  
 ---------------------------------------------------------------
 Warning -- This program may not be used in any manner that
 competes with the business of Gaussian, Inc. or will provide
 assistance to any competitor of Gaussian, Inc.  The licensee
 of this program is prohibited from giving any competitor of
 Gaussian, Inc. access to this program.  By using this program,
 the user acknowledges that Gaussian, Inc. is engaged in the
 business of creating and licensing software in the field of
 computational chemistry and represents and warrants to the
 licensee that it is not a competitor of Gaussian, Inc. and that
 it will not use this program in any manner prohibited above.
 ---------------------------------------------------------------
  

 Cite this work as:
 Gaussian 09, Revision D.01,
 M. J. Frisch, G. W. Trucks, H. B. Schlegel, G. E. Scuseria, 
 M. A. Robb, J. R. Cheeseman, G. Scalmani, V. Barone, B. Mennucci, 
 G. A. Petersson, H. Nakatsuji, M. Caricato, X. Li, H. P. Hratchian, 
 A. F. Izmaylov, J. Bloino, G. Zheng, J. L. Sonnenberg, M. Hada, 
 M. Ehara, K. Toyota, R. Fukuda, J. Hasegawa, M. Ishida, T. Nakajima, 
 Y. Honda, O. Kitao, H. Nakai, T. Vreven, J. A. Montgomery, Jr., 
 J. E. Peralta, F. Ogliaro, M. Bearpark, J. J. Heyd, E. Brothers, 
 K. N. Kudin, V. N. Staroverov, T. Keith, R. Kobayashi, J. Normand, 
 K. Raghavachari, A. Rendell, J. C. Burant, S. S. Iyengar, J. Tomasi, 
 M. Cossi, N. Rega, J. M. Millam, M. Klene, J. E. Knox, J. B. Cross, 
 V. Bakken, C. Adamo, J. Jaramillo, R. Gomperts, R. E. Stratmann, 
 O. Yazyev, A. J. Austin, R. Cammi, C. Pomelli, J. W. Ochterski, 
 R. L. Martin, K. Morokuma, V. G. Zakrzewski, G. A. Voth, 
 P. Salvador, J. J. Dannenberg, S. Dapprich, A. D. Daniels, 
 O. Farkas, J. B. Foresman, J. V. Ortiz, J. Cioslowski, 
 and D. J. Fox, Gaussian, Inc., Wallingford CT, 2013.
 
 ******************************************
 Gaussian 09:  IA32W-G09RevD.01 24-Apr-2013
                30-Mar-2026 
 ******************************************
 %chk=C:\Users\emman\Escritorio\quimica-enlaces\molecula\fe2(full).chk
 --------------------------------
 # opt=modredundant b3lyp/lanl2dz
 --------------------------------
 1/14=-1,18=120,19=15,26=3,38=1/1,3;
 2/9=110,12=2,17=6,18=5,40=1/2;
 3/5=6,6=3,11=2,16=1,25=1,30=1,71=1,74=-5/1,2,3;
 4//1;
 5/5=2,38=5/2;
 6/7=2,8=2,9=2,10=2,28=1/1;
 7//1,2,3,16;
 1/14=-1,18=20,19=15,26=3/3(2);
 2/9=110/2;
 99//99;
 2/9=110/2;
 3/5=6,6=3,11=2,16=1,25=1,30=1,71=1,74=-5/1,2,3;
 4/5=5,16=3,69=1/1;
 5/5=2,38=5/2;
 7//1,2,3,16;
 1/14=-1,18=20,19=15,26=3/3(-5);
 2/9=110/2;
 6/7=2,8=2,9=2,10=2,19=2,28=1/1;
 99/9=1/99;
 -------------------
 Title Card Required
 -------------------
 Symbolic Z-matrix:
 Charge =  0 Multiplicity = 1
 Fe                   -0.99837  -1.12378   0. 
 Fe                   -1.99837  -1.12378   0. 
 
 The following ModRedundant input section has been read:
 B       1       2 S  25 0.2000                                                
 

 GradGradGradGradGradGradGradGradGradGradGradGradGradGradGradGradGradGrad
 Berny optimization.
 Initialization pass.
                           ----------------------------
                           !    Initial Parameters    !
                           ! (Angstroms and Degrees)  !
 --------------------------                            --------------------------
 ! Name  Definition              Value          Derivative Info.                !
 --------------------------------------------------------------------------------
 ! R1    R(1,2)                  1.0            Scan                            !
 --------------------------------------------------------------------------------
 Trust Radius=3.00D-01 FncErr=1.00D-07 GrdErr=1.00D-06
 Number of optimizations in scan=  26
 Number of steps in this run=     20 maximum allowed number of steps=    100.
 GradGradGradGradGradGradGradGradGradGradGradGradGradGradGradGradGradGrad

                          Input orientation:                          
 ---------------------------------------------------------------------
 Center     Atomic      Atomic             Coordinates (Angstroms)
 Number     Number       Type             X           Y           Z
 ---------------------------------------------------------------------
      1         26           0       -0.998371   -1.123778    0.000000
      2         26           0       -1.998371   -1.123778    0.000000
 ---------------------------------------------------------------------
 Stoichiometry    Fe2
 Framework group  D*H[C*(Fe.Fe)]
 Deg. of freedom     1
 Full point group                 D*H     NOp   8
 Largest Abelian subgroup         D2H     NOp   8
 Largest concise Abelian subgroup C2      NOp   2
                         Standard orientation:                         
 ---------------------------------------------------------------------
 Center     Atomic      Atomic             Coordinates (Angstroms)
 Number     Number       Type             X           Y           Z
 ---------------------------------------------------------------------
      1         26           0        0.000000    0.000000    0.500000
      2         26           0        0.000000    0.000000   -0.500000
 ---------------------------------------------------------------------
 Rotational constants (GHZ):      0.0000000     18.0702442     18.0702442
 Standard basis: LANL2DZ (5D, 7F)
 There are    12 symmetry adapted cartesian basis functions of AG  symmetry.
 There are     2 symmetry adapted cartesian basis functions of B1G symmetry.
 There are     5 symmetry adapted cartesian basis functions of B2G symmetry.
 There are     5 symmetry adapted cartesian basis functions of B3G symmetry.
 There are     2 symmetry adapted cartesian basis functions of AU  symmetry.
 There are    12 symmetry adapted cartesian basis functions of B1U symmetry.
 There are     5 symmetry adapted cartesian basis functions of B2U symmetry.
 There are     5 symmetry adapted cartesian basis functions of B3U symmetry.
 There are    10 symmetry adapted basis functions of AG  symmetry.
 There are     2 symmetry adapted basis functions of B1G symmetry.
 There are     5 symmetry adapted basis functions of B2G symmetry.
 There are     5 symmetry adapted basis functions of B3G symmetry.
 There are     2 symmetry adapted basis functions of AU  symmetry.
 There are    10 symmetry adapted basis functions of B1U symmetry.
 There are     5 symmetry adapted basis functions of B2U symmetry.
 There are     5 symmetry adapted basis functions of B3U symmetry.
    44 basis functions,   104 primitive gaussians,    48 cartesian basis functions
    16 alpha electrons       16 beta electrons
       nuclear repulsion energy       135.4693653990 Hartrees.
 NAtoms=    2 NActive=    2 NUniq=    1 SFac= 4.00D+00 NAtFMM=   60 NAOKFM=F Big=F
 Integral buffers will be    262144 words long.
 Raffenetti 2 integral format.
 Two-electron integral symmetry is turned on.
 One-electron integrals computed using PRISM.
   8 Symmetry operations used in ECPInt.
 ECPInt:  NShTT=     136 NPrTT=     625 LenC2=     137 LenP2D=     624.
 LDataN:  DoStor=T MaxTD1= 4 Len=   56
 NBasis=    44 RedAO= T EigKep=  1.08D-03  NBF=    10     2     5     5     2    10     5     5
 NBsUse=    44 1.00D-06 EigRej= -1.00D+00 NBFU=    10     2     5     5     2    10     5     5
 ExpMin= 2.20D-02 ExpMax= 3.71D+01 ExpMxC= 3.71D+01 IAcc=3 IRadAn=         5 AccDes= 0.00D+00
 Harris functional with IExCor=  402 and IRadAn=       5 diagonalized for initial guess.
 HarFok:  IExCor=  402 AccDes= 0.00D+00 IRadAn=         5 IDoV= 1 UseB2=F ITyADJ=14
 ICtDFT=  3500011 ScaDFX=  1.000000  1.000000  1.000000  1.000000
 FoFCou: FMM=F IPFlag=           0 FMFlag=      100000 FMFlg1=           0
         NFxFlg=           0 DoJE=T BraDBF=F KetDBF=T FulRan=T
         wScrn=  0.000000 ICntrl=     500 IOpCl=  0 I1Cent=   200000004 NGrid=           0
         NMat0=    1 NMatS0=      1 NMatT0=    0 NMatD0=    1 NMtDS0=    0 NMtDT0=    0
 Petite list used in FoFCou.
 Initial guess orbital symmetries:
       Occupied  (SGG) (SGU) (SGG) (PIU) (PIU) (PIG) (PIG) (SGU)
                 (PIU) (PIU) (SGG) (DLTG) (DLTG) (DLTU) (DLTU)
                 (SGG)
       Virtual   (PIG) (PIG) (SGU) (PIU) (PIU) (SGG) (SGU) (PIU)
                 (PIU) (PIG) (PIG) (SGG) (SGU) (PIG) (PIG) (SGG)
                 (SGU) (DLTG) (DLTG) (PIU) (PIU) (PIG) (PIG) (DLTU)
                 (DLTU) (SGU) (SGG) (SGU)
 The electronic state of the initial guess is 1-SGG.
 Keep R1 ints in memory in symmetry-blocked form, NReq=1384252.
 Requested convergence on RMS density matrix=1.00D-08 within 128 cycles.
 Requested convergence on MAX density matrix=1.00D-06.
 Requested convergence on             energy=1.00D-06.
 No special actions if energy rises.
 SCF Done:  E(RB3LYP) =  -243.969848209     A.U. after   17 cycles
            NFock= 17  Conv=0.30D-08     -V/T= 2.5771

 **********************************************************************

            Population analysis using the SCF density.

 **********************************************************************

 Orbital symmetries:
       Occupied  (SGG) (SGU) (SGG) (PIU) (PIU) (PIG) (PIG) (SGU)
                 (PIU) (PIU) (SGG) (DLTG) (DLTG) (SGG) (DLTU) (DLTU)
       Virtual   (SGU) (PIU) (PIU) (PIG) (PIG) (SGG) (SGU) (PIU)
                 (PIU) (PIG) (PIG) (SGG) (SGU) (SGG) (PIG) (PIG)
                 (SGU) (DLTG) (DLTG) (PIU) (PIU) (DLTU) (DLTU)
                 (PIG) (PIG) (SGU) (SGG) (SGU)
 The electronic state is 1-SGG.
 Alpha  occ. eigenvalues --   -4.51584  -3.24565  -2.71136  -2.63599  -2.63599
 Alpha  occ. eigenvalues --   -2.11234  -2.11234  -1.67480  -0.61044  -0.61044
 Alpha  occ. eigenvalues --   -0.58391  -0.45732  -0.45732  -0.17367  -0.10001
 Alpha  occ. eigenvalues --   -0.10001
 Alpha virt. eigenvalues --   -0.06474  -0.05889  -0.05889   0.02062   0.02062
 Alpha virt. eigenvalues --    0.02627   0.03711   0.04873   0.04873   0.08959
 Alpha virt. eigenvalues --    0.08959   0.11948   0.17213   0.24320   0.27383
 Alpha virt. eigenvalues --    0.27383   0.34611   0.48327   0.48327   0.55938
 Alpha virt. eigenvalues --    0.55938   0.68498   0.68498   0.71373   0.71373
 Alpha virt. eigenvalues --    0.91250   3.02500  53.91298
          Condensed to atoms (all electrons):
               1          2
     1  Fe  16.448013  -0.448013
     2  Fe  -0.448013  16.448013
 Mulliken charges:
               1
     1  Fe   0.000000
     2  Fe   0.000000
 Sum of Mulliken charges =   0.00000
 Mulliken charges with hydrogens summed into heavy atoms:
               1
     1  Fe   0.000000
     2  Fe   0.000000
 Electronic spatial extent (au):  <R**2>=             98.4503
 Charge=              0.0000 electrons
 Dipole moment (field-independent basis, Debye):
    X=              0.0000    Y=              0.0000    Z=              0.0000  Tot=              0.0000
 Quadrupole moment (field-independent basis, Debye-Ang):
   XX=            -29.4133   YY=            -29.4133   ZZ=            -35.1668
   XY=              0.0000   XZ=              0.0000   YZ=              0.0000
 Traceless Quadrupole moment (field-independent basis, Debye-Ang):
   XX=              1.9178   YY=              1.9178   ZZ=             -3.8357
   XY=              0.0000   XZ=              0.0000   YZ=              0.0000
 Octapole moment (field-independent basis, Debye-Ang**2):
  XXX=              0.0000  YYY=              0.0000  ZZZ=              0.0000  XYY=              0.0000
  XXY=              0.0000  XXZ=              0.0000  XZZ=              0.0000  YZZ=              0.0000
  YYZ=              0.0000  XYZ=              0.0000
 Hexadecapole moment (field-independent basis, Debye-Ang**3):
 XXXX=            -55.8492 YYYY=            -55.8492 ZZZZ=           -173.3698 XXXY=              0.0000
 XXXZ=              0.0000 YYYX=              0.0000 YYYZ=              0.0000 ZZZX=              0.0000
 ZZZY=              0.0000 XXYY=            -18.6164 XXZZ=            -34.7565 YYZZ=            -34.7565
 XXYZ=              0.0000 YYXZ=              0.0000 ZZXY=              0.0000
 N-N= 1.354693653990D+02 E-N=-8.481921234309D+02  KE= 1.546953475441D+02
 Symmetry AG   KE= 3.720173510446D+01
 Symmetry B1G  KE= 1.197275550272D+01
 Symmetry B2G  KE= 8.559686755364D+00
 Symmetry B3G  KE= 8.559686755365D+00
 Symmetry AU   KE= 1.509715108542D+01
 Symmetry B1U  KE= 3.064441303092D+01
 Symmetry B2U  KE= 2.132995965492D+01
 Symmetry B3U  KE= 2.132995965489D+01
   8 Symmetry operations used in ECPInt.
 ECPInt:  NShTT=     136 NPrTT=     625 LenC2=     137 LenP2D=     624.
 LDataN:  DoStor=T MaxTD1= 5 Len=  102
 Calling FoFJK, ICntrl=      2127 FMM=F ISym2X=1 I1Cent= 0 IOpClX= 0 NMat=1 NMatS=1 NMatT=0.
 ***** Axes restored to original set *****
 -------------------------------------------------------------------
 Center     Atomic                   Forces (Hartrees/Bohr)
 Number     Number              X              Y              Z
 -------------------------------------------------------------------
      1       26           8.593865773    0.000000000    0.000000000
      2       26          -8.593865773    0.000000000    0.000000000
 -------------------------------------------------------------------
 Cartesian Forces:  Max     8.593865773 RMS     4.961670717

 GradGradGradGradGradGradGradGradGradGradGradGradGradGradGradGradGradGrad
 Berny optimization.
 FormGI is forming the generalized inverse of G from B-inverse, IUseBI=4.
 Internal  Forces:  Max     8.593865773 RMS     8.593865773
 Search for a local minimum.
 Step number   1 out of a maximum of   20 on scan point     1 out of    26
 All quantities printed in internal units (Hartrees-Bohrs-Radians)
 Mixed Optimization -- En-DIIS/RFO-DIIS
 Second derivative matrix not updated -- first step.
 The second derivative matrix:
                          R1
           R1          17.34000
 ITU=  0
     Eigenvalues --- 1000.00000
 RFO step:  Lambda= 0.00000000D+00 EMin= 1.00000000D+03
 Linear search not attempted -- first point.
 Iteration  1 RMS(Cart)=  0.00000000 RMS(Int)=  0.00000000
 Iteration  1 RMS(Cart)=  0.00000000 RMS(Int)=  0.00000000
 ClnCor:  largest displacement from symmetrization is 0.00D+00 for atom     0.
 Variable       Old X    -DE/DX   Delta X   Delta X   Delta X     New X
                                 (Linear)    (Quad)   (Total)
    R1        1.88973   8.59387   0.00000   0.00000   0.00000   1.88973
         Item               Value     Threshold  Converged?
 Maximum Force            0.000000     0.000450     YES
 RMS     Force            0.000000     0.000300     YES
 Maximum Displacement     0.000000     0.001800     YES
 RMS     Displacement     0.000000     0.001200     YES
 Predicted change in Energy= 0.000000D+00
 Optimization completed.
    -- Stationary point found.
                           ----------------------------
                           !   Optimized Parameters   !
                           ! (Angstroms and Degrees)  !
 --------------------------                            --------------------------
 ! Name  Definition              Value          Derivative Info.                !
 --------------------------------------------------------------------------------
 ! R1    R(1,2)                  1.0            -DE/DX =    8.5939              !
 --------------------------------------------------------------------------------
 Iteration  1 RMS(Cart)=  0.14142136 RMS(Int)=  0.17794523
 Iteration  2 RMS(Cart)=  0.12582628 RMS(Int)=  0.00000000
 Iteration  3 RMS(Cart)=  0.00000000 RMS(Int)=  0.00000000
 Iteration  1 RMS(Cart)=  0.00000000 RMS(Int)=  0.00000000
 GradGradGradGradGradGradGradGradGradGradGradGradGradGradGradGradGradGrad

                          Input orientation:                          
 ---------------------------------------------------------------------
 Center     Atomic      Atomic             Coordinates (Angstroms)
 Number     Number       Type             X           Y           Z
 ---------------------------------------------------------------------
      1         26           0       -0.898371   -1.123778    0.000000
      2         26           0       -2.098371   -1.123778    0.000000
 ---------------------------------------------------------------------
 Stoichiometry    Fe2
 Framework group  D*H[C*(Fe.Fe)]
 Deg. of freedom     1
 Full point group                 D*H     NOp   8
 Largest Abelian subgroup         D2H     NOp   8
 Largest concise Abelian subgroup C2      NOp   2
                         Standard orientation:                         
 ---------------------------------------------------------------------
 Center     Atomic      Atomic             Coordinates (Angstroms)
 Number     Number       Type             X           Y           Z
 ---------------------------------------------------------------------
      1         26           0        0.000000    0.000000    0.600000
      2         26           0        0.000000    0.000000   -0.600000
 ---------------------------------------------------------------------
 Rotational constants (GHZ):      0.0000000     12.5487807     12.5487807
 Standard basis: LANL2DZ (5D, 7F)
 There are    12 symmetry adapted cartesian basis functions of AG  symmetry.
 There are     2 symmetry adapted cartesian basis functions of B1G symmetry.
 There are     5 symmetry adapted cartesian basis functions of B2G symmetry.
 There are     5 symmetry adapted cartesian basis functions of B3G symmetry.
 There are     2 symmetry adapted cartesian basis functions of AU  symmetry.
 There are    12 symmetry adapted cartesian basis functions of B1U symmetry.
 There are     5 symmetry adapted cartesian basis functions of B2U symmetry.
 There are     5 symmetry adapted cartesian basis functions of B3U symmetry.
 There are    10 symmetry adapted basis functions of AG  symmetry.
 There are     2 symmetry adapted basis functions of B1G symmetry.
 There are     5 symmetry adapted basis functions of B2G symmetry.
 There are     5 symmetry adapted basis functions of B3G symmetry.
 There are     2 symmetry adapted basis functions of AU  symmetry.
 There are    10 symmetry adapted basis functions of B1U symmetry.
 There are     5 symmetry adapted basis functions of B2U symmetry.
 There are     5 symmetry adapted basis functions of B3U symmetry.
    44 basis functions,   104 primitive gaussians,    48 cartesian basis functions
    16 alpha electrons       16 beta electrons
       nuclear repulsion energy       112.8911378325 Hartrees.
 NAtoms=    2 NActive=    2 NUniq=    1 SFac= 4.00D+00 NAtFMM=   60 NAOKFM=F Big=F
 Integral buffers will be    262144 words long.
 Raffenetti 2 integral format.
 Two-electron integral symmetry is turned on.
 One-electron integrals computed using PRISM.
   8 Symmetry operations used in ECPInt.
 ECPInt:  NShTT=     136 NPrTT=     625 LenC2=     137 LenP2D=     622.
 LDataN:  DoStor=T MaxTD1= 4 Len=   56
 NBasis=    44 RedAO= T EigKep=  1.40D-03  NBF=    10     2     5     5     2    10     5     5
 NBsUse=    44 1.00D-06 EigRej= -1.00D+00 NBFU=    10     2     5     5     2    10     5     5
 Initial guess from the checkpoint file:  "C:\Users\emman\Escritorio\quimica-enlaces\molecula\fe2(full).chk"
 B after Tr=     0.000000    0.000000    0.000000
         Rot=    1.000000    0.000000    0.000000    0.000000 Ang=   0.00 deg.
 Initial guess orbital symmetries:
       Occupied  (SGG) (SGU) (SGG) (PIU) (PIU) (PIG) (PIG) (SGU)
                 (PIU) (PIU) (SGG) (DLTG) (DLTG) (SGG) (DLTU) (DLTU)
       Virtual   (SGG) (DLTG) (SGG) (SGG) (SGG) (DLTG) (PIG) (PIG)
                 (PIG) (PIG) (PIG) (PIG) (PIG) (PIG) (DLTU) (SGU)
                 (SGU) (DLTU) (SGU) (SGU) (SGU) (SGU) (PIU) (PIU)
                 (PIU) (PIU) (PIU) (PIU)
 ExpMin= 2.20D-02 ExpMax= 3.71D+01 ExpMxC= 3.71D+01 IAcc=3 IRadAn=         5 AccDes= 0.00D+00
 Harris functional with IExCor=  402 and IRadAn=       5 diagonalized for initial guess.
 HarFok:  IExCor=  402 AccDes= 0.00D+00 IRadAn=         5 IDoV= 1 UseB2=F ITyADJ=14
 ICtDFT=  3500011 ScaDFX=  1.000000  1.000000  1.000000  1.000000
 FoFCou: FMM=F IPFlag=           0 FMFlag=      100000 FMFlg1=           0
         NFxFlg=           0 DoJE=T BraDBF=F KetDBF=T FulRan=T
         wScrn=  0.000000 ICntrl=     500 IOpCl=  0 I1Cent=   200000004 NGrid=           0
         NMat0=    1 NMatS0=      1 NMatT0=    0 NMatD0=    1 NMtDS0=    0 NMtDT0=    0
 Petite list used in FoFCou.
 Keep R1 ints in memory in symmetry-blocked form, NReq=1384252.
 Requested convergence on RMS density matrix=1.00D-08 within 128 cycles.
 Requested convergence on MAX density matrix=1.00D-06.
 Requested convergence on             energy=1.00D-06.
 No special actions if energy rises.
 SCF Done:  E(RB3LYP) =  -245.884217237     A.U. after   12 cycles
            NFock= 12  Conv=0.32D-08     -V/T= 2.6583
   8 Symmetry operations used in ECPInt.
 ECPInt:  NShTT=     136 NPrTT=     625 LenC2=     137 LenP2D=     622.
 LDataN:  DoStor=T MaxTD1= 5 Len=  102
 Calling FoFJK, ICntrl=      2127 FMM=F ISym2X=1 I1Cent= 0 IOpClX= 0 NMat=1 NMatS=1 NMatT=0.
 ***** Axes restored to original set *****
 -------------------------------------------------------------------
 Center     Atomic                   Forces (Hartrees/Bohr)
 Number     Number              X              Y              Z
 -------------------------------------------------------------------
      1       26           2.600252089    0.000000000    0.000000000
      2       26          -2.600252089    0.000000000    0.000000000
 -------------------------------------------------------------------
 Cartesian Forces:  Max     2.600252089 RMS     1.501256243

 GradGradGradGradGradGradGradGradGradGradGradGradGradGradGradGradGradGrad
 Berny optimization.
 Internal  Forces:  Max     2.600252089 RMS     2.600252089
 Search for a local minimum.
 Step number   1 out of a maximum of   20 on scan point     2 out of    26
 All quantities printed in internal units (Hartrees-Bohrs-Radians)
 Mixed Optimization -- RFO/linear search
 Second derivative matrix not updated -- first step.
 The second derivative matrix:
                          R1
           R1          17.34000
 ITU=  0
     Eigenvalues --- 1000.00000
 RFO step:  Lambda= 0.00000000D+00 EMin= 1.00000000D+03
 Linear search not attempted -- first point.
 Iteration  1 RMS(Cart)=  0.00000000 RMS(Int)=  0.00000000
 Iteration  1 RMS(Cart)=  0.00000000 RMS(Int)=  0.00000000
 ClnCor:  largest displacement from symmetrization is 1.54D-32 for atom     1.
 Variable       Old X    -DE/DX   Delta X   Delta X   Delta X     New X
                                 (Linear)    (Quad)   (Total)
    R1        2.26767   2.60025   0.00000   0.00000   0.00000   2.26767
         Item               Value     Threshold  Converged?
 Maximum Force            0.000000     0.000450     YES
 RMS     Force            0.000000     0.000300     YES
 Maximum Displacement     0.000000     0.001800     YES
 RMS     Displacement     0.000000     0.001200     YES
 Predicted change in Energy=-2.309488D-15
 Optimization completed.
    -- Stationary point found.
                           ----------------------------
                           !   Optimized Parameters   !
                           ! (Angstroms and Degrees)  !
 --------------------------                            --------------------------
 ! Name  Definition              Value          Derivative Info.                !
 --------------------------------------------------------------------------------
 ! R1    R(1,2)                  1.2            -DE/DX =    2.6003              !
 --------------------------------------------------------------------------------
 Iteration  1 RMS(Cart)=  0.14142136 RMS(Int)=  0.17794523
 Iteration  2 RMS(Cart)=  0.12582628 RMS(Int)=  0.00000000
 Iteration  3 RMS(Cart)=  0.00000000 RMS(Int)=  0.00000000
 Iteration  1 RMS(Cart)=  0.00000000 RMS(Int)=  0.00000000
 GradGradGradGradGradGradGradGradGradGradGradGradGradGradGradGradGradGrad

                          Input orientation:                          
 ---------------------------------------------------------------------
 Center     Atomic      Atomic             Coordinates (Angstroms)
 Number     Number       Type             X           Y           Z
 ---------------------------------------------------------------------
      1         26           0       -0.798371   -1.123778    0.000000
      2         26           0       -2.198371   -1.123778    0.000000
 ---------------------------------------------------------------------
 Stoichiometry    Fe2
 Framework group  D*H[C*(Fe.Fe)]
 Deg. of freedom     1
 Full point group                 D*H     NOp   8
 Largest Abelian subgroup         D2H     NOp   8
 Largest concise Abelian subgroup C2      NOp   2
                         Standard orientation:                         
 ---------------------------------------------------------------------
 Center     Atomic      Atomic             Coordinates (Angstroms)
 Number     Number       Type             X           Y           Z
 ---------------------------------------------------------------------
      1         26           0        0.000000    0.000000    0.700000
      2         26           0        0.000000    0.000000   -0.700000
 ---------------------------------------------------------------------
 Rotational constants (GHZ):      0.0000000      9.2195123      9.2195123
 Standard basis: LANL2DZ (5D, 7F)
 There are    12 symmetry adapted cartesian basis functions of AG  symmetry.
 There are     2 symmetry adapted cartesian basis functions of B1G symmetry.
 There are     5 symmetry adapted cartesian basis functions of B2G symmetry.
 There are     5 symmetry adapted cartesian basis functions of B3G symmetry.
 There are     2 symmetry adapted cartesian basis functions of AU  symmetry.
 There are    12 symmetry adapted cartesian basis functions of B1U symmetry.
 There are     5 symmetry adapted cartesian basis functions of B2U symmetry.
 There are     5 symmetry adapted cartesian basis functions of B3U symmetry.
 There are    10 symmetry adapted basis functions of AG  symmetry.
 There are     2 symmetry adapted basis functions of B1G symmetry.
 There are     5 symmetry adapted basis functions of B2G symmetry.
 There are     5 symmetry adapted basis functions of B3G symmetry.
 There are     2 symmetry adapted basis functions of AU  symmetry.
 There are    10 symmetry adapted basis functions of B1U symmetry.
 There are     5 symmetry adapted basis functions of B2U symmetry.
 There are     5 symmetry adapted basis functions of B3U symmetry.
    44 basis functions,   104 primitive gaussians,    48 cartesian basis functions
    16 alpha electrons       16 beta electrons
       nuclear repulsion energy        96.7638324279 Hartrees.
 NAtoms=    2 NActive=    2 NUniq=    1 SFac= 4.00D+00 NAtFMM=   60 NAOKFM=F Big=F
 Integral buffers will be    262144 words long.
 Raffenetti 2 integral format.
 Two-electron integral symmetry is turned on.
 One-electron integrals computed using PRISM.
   8 Symmetry operations used in ECPInt.
 ECPInt:  NShTT=     136 NPrTT=     625 LenC2=     137 LenP2D=     621.
 LDataN:  DoStor=T MaxTD1= 4 Len=   56
 NBasis=    44 RedAO= T EigKep=  1.89D-03  NBF=    10     2     5     5     2    10     5     5
 NBsUse=    44 1.00D-06 EigRej= -1.00D+00 NBFU=    10     2     5     5     2    10     5     5
 Initial guess from the checkpoint file:  "C:\Users\emman\Escritorio\quimica-enlaces\molecula\fe2(full).chk"
 B after Tr=     0.000000    0.000000    0.000000
         Rot=    1.000000    0.000000    0.000000    0.000000 Ang=   0.00 deg.
 Initial guess orbital symmetries:
       Occupied  (SGG) (SGU) (SGG) (PIU) (PIU) (PIG) (PIG) (SGU)
                 (PIU) (PIU) (SGG) (DLTG) (DLTG) (SGG) (DLTU) (DLTU)
       Virtual   (SGG) (DLTG) (SGG) (SGG) (SGG) (DLTG) (PIG) (PIG)
                 (PIG) (PIG) (PIG) (PIG) (PIG) (PIG) (DLTU) (SGU)
                 (SGU) (SGU) (SGU) (SGU) (DLTU) (SGU) (PIU) (PIU)
                 (PIU) (PIU) (PIU) (PIU)
 ExpMin= 2.20D-02 ExpMax= 3.71D+01 ExpMxC= 3.71D+01 IAcc=3 IRadAn=         5 AccDes= 0.00D+00
 Harris functional with IExCor=  402 and IRadAn=       5 diagonalized for initial guess.
 HarFok:  IExCor=  402 AccDes= 0.00D+00 IRadAn=         5 IDoV= 1 UseB2=F ITyADJ=14
 ICtDFT=  3500011 ScaDFX=  1.000000  1.000000  1.000000  1.000000
 FoFCou: FMM=F IPFlag=           0 FMFlag=      100000 FMFlg1=           0
         NFxFlg=           0 DoJE=T BraDBF=F KetDBF=T FulRan=T
         wScrn=  0.000000 ICntrl=     500 IOpCl=  0 I1Cent=   200000004 NGrid=           0
         NMat0=    1 NMatS0=      1 NMatT0=    0 NMatD0=    1 NMtDS0=    0 NMtDT0=    0
 Petite list used in FoFCou.
 Keep R1 ints in memory in symmetry-blocked form, NReq=1384252.
 Requested convergence on RMS density matrix=1.00D-08 within 128 cycles.
 Requested convergence on MAX density matrix=1.00D-06.
 Requested convergence on             energy=1.00D-06.
 No special actions if energy rises.
 SCF Done:  E(RB3LYP) =  -246.432976194     A.U. after   10 cycles
            NFock= 10  Conv=0.30D-08     -V/T= 2.7002
   8 Symmetry operations used in ECPInt.
 ECPInt:  NShTT=     136 NPrTT=     625 LenC2=     137 LenP2D=     621.
 LDataN:  DoStor=T MaxTD1= 5 Len=  102
 Calling FoFJK, ICntrl=      2127 FMM=F ISym2X=1 I1Cent= 0 IOpClX= 0 NMat=1 NMatS=1 NMatT=0.
 ***** Axes restored to original set *****
 -------------------------------------------------------------------
 Center     Atomic                   Forces (Hartrees/Bohr)
 Number     Number              X              Y              Z
 -------------------------------------------------------------------
      1       26           0.676587864    0.000000000    0.000000000
      2       26          -0.676587864    0.000000000    0.000000000
 -------------------------------------------------------------------
 Cartesian Forces:  Max     0.676587864 RMS     0.390628186

 GradGradGradGradGradGradGradGradGradGradGradGradGradGradGradGradGradGrad
 Berny optimization.
 Internal  Forces:  Max     0.676587864 RMS     0.676587864
 Search for a local minimum.
 Step number   1 out of a maximum of   20 on scan point     3 out of    26
 All quantities printed in internal units (Hartrees-Bohrs-Radians)
 Mixed Optimization -- RFO/linear search
 Second derivative matrix not updated -- first step.
 The second derivative matrix:
                          R1
           R1          17.34000
 ITU=  0
     Eigenvalues --- 1000.00000
 RFO step:  Lambda= 0.00000000D+00 EMin= 1.00000000D+03
 Linear search not attempted -- first point.
 Iteration  1 RMS(Cart)=  0.00000000 RMS(Int)=  0.00000000
 Iteration  1 RMS(Cart)=  0.00000000 RMS(Int)=  0.00000000
 ClnCor:  largest displacement from symmetrization is 0.00D+00 for atom     0.
 Variable       Old X    -DE/DX   Delta X   Delta X   Delta X     New X
                                 (Linear)    (Quad)   (Total)
    R1        2.64562   0.67659   0.00000   0.00000   0.00000   2.64562
         Item               Value     Threshold  Converged?
 Maximum Force            0.000000     0.000450     YES
 RMS     Force            0.000000     0.000300     YES
 Maximum Displacement     0.000000     0.001800     YES
 RMS     Displacement     0.000000     0.001200     YES
 Predicted change in Energy= 0.000000D+00
 Optimization completed.
    -- Stationary point found.
                           ----------------------------
                           !   Optimized Parameters   !
                           ! (Angstroms and Degrees)  !
 --------------------------                            --------------------------
 ! Name  Definition              Value          Derivative Info.                !
 --------------------------------------------------------------------------------
 ! R1    R(1,2)                  1.4            -DE/DX =    0.6766              !
 --------------------------------------------------------------------------------
 Iteration  1 RMS(Cart)=  0.14142136 RMS(Int)=  0.17794523
 Iteration  2 RMS(Cart)=  0.12582628 RMS(Int)=  0.00000000
 Iteration  3 RMS(Cart)=  0.00000000 RMS(Int)=  0.00000000
 Iteration  1 RMS(Cart)=  0.00000000 RMS(Int)=  0.00000000
 GradGradGradGradGradGradGradGradGradGradGradGradGradGradGradGradGradGrad

                          Input orientation:                          
 ---------------------------------------------------------------------
 Center     Atomic      Atomic             Coordinates (Angstroms)
 Number     Number       Type             X           Y           Z
 ---------------------------------------------------------------------
      1         26           0       -0.698371   -1.123778    0.000000
      2         26           0       -2.298371   -1.123778    0.000000
 ---------------------------------------------------------------------
 Stoichiometry    Fe2
 Framework group  D*H[C*(Fe.Fe)]
 Deg. of freedom     1
 Full point group                 D*H     NOp   8
 Largest Abelian subgroup         D2H     NOp   8
 Largest concise Abelian subgroup C2      NOp   2
                         Standard orientation:                         
 ---------------------------------------------------------------------
 Center     Atomic      Atomic             Coordinates (Angstroms)
 Number     Number       Type             X           Y           Z
 ---------------------------------------------------------------------
      1         26           0        0.000000    0.000000    0.800000
      2         26           0        0.000000    0.000000   -0.800000
 ---------------------------------------------------------------------
 Rotational constants (GHZ):      0.0000000      7.0586891      7.0586891
 Standard basis: LANL2DZ (5D, 7F)
 There are    12 symmetry adapted cartesian basis functions of AG  symmetry.
 There are     2 symmetry adapted cartesian basis functions of B1G symmetry.
 There are     5 symmetry adapted cartesian basis functions of B2G symmetry.
 There are     5 symmetry adapted cartesian basis functions of B3G symmetry.
 There are     2 symmetry adapted cartesian basis functions of AU  symmetry.
 There are    12 symmetry adapted cartesian basis functions of B1U symmetry.
 There are     5 symmetry adapted cartesian basis functions of B2U symmetry.
 There are     5 symmetry adapted cartesian basis functions of B3U symmetry.
 There are    10 symmetry adapted basis functions of AG  symmetry.
 There are     2 symmetry adapted basis functions of B1G symmetry.
 There are     5 symmetry adapted basis functions of B2G symmetry.
 There are     5 symmetry adapted basis functions of B3G symmetry.
 There are     2 symmetry adapted basis functions of AU  symmetry.
 There are    10 symmetry adapted basis functions of B1U symmetry.
 There are     5 symmetry adapted basis functions of B2U symmetry.
 There are     5 symmetry adapted basis functions of B3U symmetry.
    44 basis functions,   104 primitive gaussians,    48 cartesian basis functions
    16 alpha electrons       16 beta electrons
       nuclear repulsion energy        84.6683533744 Hartrees.
 NAtoms=    2 NActive=    2 NUniq=    1 SFac= 4.00D+00 NAtFMM=   60 NAOKFM=F Big=F
 Integral buffers will be    262144 words long.
 Raffenetti 2 integral format.
 Two-electron integral symmetry is turned on.
 One-electron integrals computed using PRISM.
   8 Symmetry operations used in ECPInt.
 ECPInt:  NShTT=     136 NPrTT=     625 LenC2=     137 LenP2D=     619.
 LDataN:  DoStor=T MaxTD1= 4 Len=   56
 NBasis=    44 RedAO= T EigKep=  2.71D-03  NBF=    10     2     5     5     2    10     5     5
 NBsUse=    44 1.00D-06 EigRej= -1.00D+00 NBFU=    10     2     5     5     2    10     5     5
 Initial guess from the checkpoint file:  "C:\Users\emman\Escritorio\quimica-enlaces\molecula\fe2(full).chk"
 B after Tr=     0.000000    0.000000    0.000000
         Rot=    1.000000    0.000000    0.000000    0.000000 Ang=   0.00 deg.
 Initial guess orbital symmetries:
       Occupied  (SGG) (SGU) (SGG) (PIU) (PIU) (PIG) (PIG) (SGU)
                 (SGG) (PIU) (PIU) (DLTG) (DLTG) (SGG) (DLTU) (DLTU)
       Virtual   (SGG) (DLTG) (SGG) (SGG) (SGG) (DLTG) (PIG) (PIG)
                 (PIG) (PIG) (PIG) (PIG) (PIG) (PIG) (DLTU) (SGU)
                 (SGU) (DLTU) (SGU) (SGU) (SGU) (SGU) (PIU) (PIU)
                 (PIU) (PIU) (PIU) (PIU)
 ExpMin= 2.20D-02 ExpMax= 3.71D+01 ExpMxC= 3.71D+01 IAcc=3 IRadAn=         5 AccDes= 0.00D+00
 Harris functional with IExCor=  402 and IRadAn=       5 diagonalized for initial guess.
 HarFok:  IExCor=  402 AccDes= 0.00D+00 IRadAn=         5 IDoV= 1 UseB2=F ITyADJ=14
 ICtDFT=  3500011 ScaDFX=  1.000000  1.000000  1.000000  1.000000
 FoFCou: FMM=F IPFlag=           0 FMFlag=      100000 FMFlg1=           0
         NFxFlg=           0 DoJE=T BraDBF=F KetDBF=T FulRan=T
         wScrn=  0.000000 ICntrl=     500 IOpCl=  0 I1Cent=   200000004 NGrid=           0
         NMat0=    1 NMatS0=      1 NMatT0=    0 NMatD0=    1 NMtDS0=    0 NMtDT0=    0
 Petite list used in FoFCou.
 Keep R1 ints in memory in symmetry-blocked form, NReq=1384252.
 Requested convergence on RMS density matrix=1.00D-08 within 128 cycles.
 Requested convergence on MAX density matrix=1.00D-06.
 Requested convergence on             energy=1.00D-06.
 No special actions if energy rises.
 SCF Done:  E(RB3LYP) =  -246.560842248     A.U. after    9 cycles
            NFock=  9  Conv=0.16D-08     -V/T= 2.7226
   8 Symmetry operations used in ECPInt.
 ECPInt:  NShTT=     136 NPrTT=     625 LenC2=     137 LenP2D=     619.
 LDataN:  DoStor=T MaxTD1= 5 Len=  102
 Calling FoFJK, ICntrl=      2127 FMM=F ISym2X=1 I1Cent= 0 IOpClX= 0 NMat=1 NMatS=1 NMatT=0.
 ***** Axes restored to original set *****
 -------------------------------------------------------------------
 Center     Atomic                   Forces (Hartrees/Bohr)
 Number     Number              X              Y              Z
 -------------------------------------------------------------------
      1       26           0.117132270    0.000000000    0.000000000
      2       26          -0.117132270    0.000000000    0.000000000
 -------------------------------------------------------------------
 Cartesian Forces:  Max     0.117132270 RMS     0.067626348

 GradGradGradGradGradGradGradGradGradGradGradGradGradGradGradGradGradGrad
 Berny optimization.
 Internal  Forces:  Max     0.117132270 RMS     0.117132270
 Search for a local minimum.
 Step number   1 out of a maximum of   20 on scan point     4 out of    26
 All quantities printed in internal units (Hartrees-Bohrs-Radians)
 Mixed Optimization -- RFO/linear search
 Second derivative matrix not updated -- first step.
 The second derivative matrix:
                          R1
           R1          17.34000
 ITU=  0
     Eigenvalues --- 1000.00000
 RFO step:  Lambda= 0.00000000D+00 EMin= 1.00000000D+03
 Linear search not attempted -- first point.
 Iteration  1 RMS(Cart)=  0.00000000 RMS(Int)=  0.00000000
 Iteration  1 RMS(Cart)=  0.00000000 RMS(Int)=  0.00000000
 ClnCor:  largest displacement from symmetrization is 8.88D-16 for atom     2.
 Variable       Old X    -DE/DX   Delta X   Delta X   Delta X     New X
                                 (Linear)    (Quad)   (Total)
    R1        3.02356   0.11713   0.00000   0.00000   0.00000   3.02356
         Item               Value     Threshold  Converged?
 Maximum Force            0.000000     0.000450     YES
 RMS     Force            0.000000     0.000300     YES
 Maximum Displacement     0.000000     0.001800     YES
 RMS     Displacement     0.000000     0.001200     YES
 Predicted change in Energy=-1.560515D-16
 Optimization completed.
    -- Stationary point found.
                           ----------------------------
                           !   Optimized Parameters   !
                           ! (Angstroms and Degrees)  !
 --------------------------                            --------------------------
 ! Name  Definition              Value          Derivative Info.                !
 --------------------------------------------------------------------------------
 ! R1    R(1,2)                  1.6            -DE/DX =    0.1171              !
 --------------------------------------------------------------------------------
 Iteration  1 RMS(Cart)=  0.14142136 RMS(Int)=  0.17794523
 Iteration  2 RMS(Cart)=  0.12582628 RMS(Int)=  0.00000000
 Iteration  3 RMS(Cart)=  0.00000000 RMS(Int)=  0.00000000
 Iteration  1 RMS(Cart)=  0.00000000 RMS(Int)=  0.00000000
 GradGradGradGradGradGradGradGradGradGradGradGradGradGradGradGradGradGrad

                          Input orientation:                          
 ---------------------------------------------------------------------
 Center     Atomic      Atomic             Coordinates (Angstroms)
 Number     Number       Type             X           Y           Z
 ---------------------------------------------------------------------
      1         26           0       -0.598371   -1.123778    0.000000
      2         26           0       -2.398371   -1.123778    0.000000
 ---------------------------------------------------------------------
 Stoichiometry    Fe2
 Framework group  D*H[C*(Fe.Fe)]
 Deg. of freedom     1
 Full point group                 D*H     NOp   8
 Largest Abelian subgroup         D2H     NOp   8
 Largest concise Abelian subgroup C2      NOp   2
                         Standard orientation:                         
 ---------------------------------------------------------------------
 Center     Atomic      Atomic             Coordinates (Angstroms)
 Number     Number       Type             X           Y           Z
 ---------------------------------------------------------------------
      1         26           0        0.000000    0.000000    0.900000
      2         26           0        0.000000    0.000000   -0.900000
 ---------------------------------------------------------------------
 Rotational constants (GHZ):      0.0000000      5.5772359      5.5772359
 Standard basis: LANL2DZ (5D, 7F)
 There are    12 symmetry adapted cartesian basis functions of AG  symmetry.
 There are     2 symmetry adapted cartesian basis functions of B1G symmetry.
 There are     5 symmetry adapted cartesian basis functions of B2G symmetry.
 There are     5 symmetry adapted cartesian basis functions of B3G symmetry.
 There are     2 symmetry adapted cartesian basis functions of AU  symmetry.
 There are    12 symmetry adapted cartesian basis functions of B1U symmetry.
 There are     5 symmetry adapted cartesian basis functions of B2U symmetry.
 There are     5 symmetry adapted cartesian basis functions of B3U symmetry.
 There are    10 symmetry adapted basis functions of AG  symmetry.
 There are     2 symmetry adapted basis functions of B1G symmetry.
 There are     5 symmetry adapted basis functions of B2G symmetry.
 There are     5 symmetry adapted basis functions of B3G symmetry.
 There are     2 symmetry adapted basis functions of AU  symmetry.
 There are    10 symmetry adapted basis functions of B1U symmetry.
 There are     5 symmetry adapted basis functions of B2U symmetry.
 There are     5 symmetry adapted basis functions of B3U symmetry.
    44 basis functions,   104 primitive gaussians,    48 cartesian basis functions
    16 alpha electrons       16 beta electrons
       nuclear repulsion energy        75.2607585550 Hartrees.
 NAtoms=    2 NActive=    2 NUniq=    1 SFac= 4.00D+00 NAtFMM=   60 NAOKFM=F Big=F
 Integral buffers will be    262144 words long.
 Raffenetti 2 integral format.
 Two-electron integral symmetry is turned on.
 One-electron integrals computed using PRISM.
   8 Symmetry operations used in ECPInt.
 ECPInt:  NShTT=     136 NPrTT=     625 LenC2=     137 LenP2D=     615.
 LDataN:  DoStor=T MaxTD1= 4 Len=   56
 NBasis=    44 RedAO= T EigKep=  3.96D-03  NBF=    10     2     5     5     2    10     5     5
 NBsUse=    44 1.00D-06 EigRej= -1.00D+00 NBFU=    10     2     5     5     2    10     5     5
 Initial guess from the checkpoint file:  "C:\Users\emman\Escritorio\quimica-enlaces\molecula\fe2(full).chk"
 B after Tr=     0.000000    0.000000    0.000000
         Rot=    1.000000    0.000000    0.000000    0.000000 Ang=   0.00 deg.
 Initial guess orbital symmetries:
       Occupied  (SGG) (SGU) (SGG) (SGU) (PIU) (PIU) (PIG) (PIG)
                 (SGG) (PIU) (PIU) (DLTG) (DLTG) (SGG) (DLTU) (DLTU)
       Virtual   (SGG) (DLTG) (SGG) (SGG) (SGG) (DLTG) (PIG) (PIG)
                 (PIG) (PIG) (PIG) (PIG) (PIG) (PIG) (DLTU) (SGU)
                 (SGU) (DLTU) (SGU) (SGU) (SGU) (SGU) (PIU) (PIU)
                 (PIU) (PIU) (PIU) (PIU)
 ExpMin= 2.20D-02 ExpMax= 3.71D+01 ExpMxC= 3.71D+01 IAcc=3 IRadAn=         5 AccDes= 0.00D+00
 Harris functional with IExCor=  402 and IRadAn=       5 diagonalized for initial guess.
 HarFok:  IExCor=  402 AccDes= 0.00D+00 IRadAn=         5 IDoV= 1 UseB2=F ITyADJ=14
 ICtDFT=  3500011 ScaDFX=  1.000000  1.000000  1.000000  1.000000
 FoFCou: FMM=F IPFlag=           0 FMFlag=      100000 FMFlg1=           0
         NFxFlg=           0 DoJE=T BraDBF=F KetDBF=T FulRan=T
         wScrn=  0.000000 ICntrl=     500 IOpCl=  0 I1Cent=   200000004 NGrid=           0
         NMat0=    1 NMatS0=      1 NMatT0=    0 NMatD0=    1 NMtDS0=    0 NMtDT0=    0
 Petite list used in FoFCou.
 Keep R1 ints in memory in symmetry-blocked form, NReq=1384252.
 Requested convergence on RMS density matrix=1.00D-08 within 128 cycles.
 Requested convergence on MAX density matrix=1.00D-06.
 Requested convergence on             energy=1.00D-06.
 No special actions if energy rises.
 SCF Done:  E(RB3LYP) =  -246.569264708     A.U. after    9 cycles
            NFock=  9  Conv=0.19D-08     -V/T= 2.7347
   8 Symmetry operations used in ECPInt.
 ECPInt:  NShTT=     136 NPrTT=     625 LenC2=     137 LenP2D=     615.
 LDataN:  DoStor=T MaxTD1= 5 Len=  102
 Calling FoFJK, ICntrl=      2127 FMM=F ISym2X=1 I1Cent= 0 IOpClX= 0 NMat=1 NMatS=1 NMatT=0.
 ***** Axes restored to original set *****
 -------------------------------------------------------------------
 Center     Atomic                   Forces (Hartrees/Bohr)
 Number     Number              X              Y              Z
 -------------------------------------------------------------------
      1       26          -0.042737086    0.000000000    0.000000000
      2       26           0.042737086    0.000000000    0.000000000
 -------------------------------------------------------------------
 Cartesian Forces:  Max     0.042737086 RMS     0.024674268

 GradGradGradGradGradGradGradGradGradGradGradGradGradGradGradGradGradGrad
 Berny optimization.
 Internal  Forces:  Max     0.042737086 RMS     0.042737086
 Search for a local minimum.
 Step number   1 out of a maximum of   20 on scan point     5 out of    26
 All quantities printed in internal units (Hartrees-Bohrs-Radians)
 Mixed Optimization -- RFO/linear search
 Second derivative matrix not updated -- first step.
 The second derivative matrix:
                          R1
           R1          17.34000
 ITU=  0
     Eigenvalues --- 1000.00000
 RFO step:  Lambda= 0.00000000D+00 EMin= 1.00000000D+03
 Linear search not attempted -- first point.
 Iteration  1 RMS(Cart)=  0.00000000 RMS(Int)=  0.00000000
 Iteration  1 RMS(Cart)=  0.00000000 RMS(Int)=  0.00000000
 ClnCor:  largest displacement from symmetrization is 0.00D+00 for atom     0.
 Variable       Old X    -DE/DX   Delta X   Delta X   Delta X     New X
                                 (Linear)    (Quad)   (Total)
    R1        3.40151  -0.04274   0.00000   0.00000   0.00000   3.40151
         Item               Value     Threshold  Converged?
 Maximum Force            0.000000     0.000450     YES
 RMS     Force            0.000000     0.000300     YES
 Maximum Displacement     0.000000     0.001800     YES
 RMS     Displacement     0.000000     0.001200     YES
 Predicted change in Energy= 0.000000D+00
 Optimization completed.
    -- Stationary point found.
                           ----------------------------
                           !   Optimized Parameters   !
                           ! (Angstroms and Degrees)  !
 --------------------------                            --------------------------
 ! Name  Definition              Value          Derivative Info.                !
 --------------------------------------------------------------------------------
 ! R1    R(1,2)                  1.8            -DE/DX =   -0.0427              !
 --------------------------------------------------------------------------------
 Iteration  1 RMS(Cart)=  0.14142136 RMS(Int)=  0.17794523
 Iteration  2 RMS(Cart)=  0.12582628 RMS(Int)=  0.00000000
 Iteration  3 RMS(Cart)=  0.00000000 RMS(Int)=  0.00000000
 Iteration  1 RMS(Cart)=  0.00000000 RMS(Int)=  0.00000000
 GradGradGradGradGradGradGradGradGradGradGradGradGradGradGradGradGradGrad

                          Input orientation:                          
 ---------------------------------------------------------------------
 Center     Atomic      Atomic             Coordinates (Angstroms)
 Number     Number       Type             X           Y           Z
 ---------------------------------------------------------------------
      1         26           0       -0.498371   -1.123778    0.000000
      2         26           0       -2.498371   -1.123778    0.000000
 ---------------------------------------------------------------------
 Stoichiometry    Fe2
 Framework group  D*H[C*(Fe.Fe)]
 Deg. of freedom     1
 Full point group                 D*H     NOp   8
 Largest Abelian subgroup         D2H     NOp   8
 Largest concise Abelian subgroup C2      NOp   2
                         Standard orientation:                         
 ---------------------------------------------------------------------
 Center     Atomic      Atomic             Coordinates (Angstroms)
 Number     Number       Type             X           Y           Z
 ---------------------------------------------------------------------
      1         26           0        0.000000    0.000000    1.000000
      2         26           0        0.000000    0.000000   -1.000000
 ---------------------------------------------------------------------
 Rotational constants (GHZ):      0.0000000      4.5175610      4.5175610
 Standard basis: LANL2DZ (5D, 7F)
 There are    12 symmetry adapted cartesian basis functions of AG  symmetry.
 There are     2 symmetry adapted cartesian basis functions of B1G symmetry.
 There are     5 symmetry adapted cartesian basis functions of B2G symmetry.
 There are     5 symmetry adapted cartesian basis functions of B3G symmetry.
 There are     2 symmetry adapted cartesian basis functions of AU  symmetry.
 There are    12 symmetry adapted cartesian basis functions of B1U symmetry.
 There are     5 symmetry adapted cartesian basis functions of B2U symmetry.
 There are     5 symmetry adapted cartesian basis functions of B3U symmetry.
 There are    10 symmetry adapted basis functions of AG  symmetry.
 There are     2 symmetry adapted basis functions of B1G symmetry.
 There are     5 symmetry adapted basis functions of B2G symmetry.
 There are     5 symmetry adapted basis functions of B3G symmetry.
 There are     2 symmetry adapted basis functions of AU  symmetry.
 There are    10 symmetry adapted basis functions of B1U symmetry.
 There are     5 symmetry adapted basis functions of B2U symmetry.
 There are     5 symmetry adapted basis functions of B3U symmetry.
    44 basis functions,   104 primitive gaussians,    48 cartesian basis functions
    16 alpha electrons       16 beta electrons
       nuclear repulsion energy        67.7346826995 Hartrees.
 NAtoms=    2 NActive=    2 NUniq=    1 SFac= 4.00D+00 NAtFMM=   60 NAOKFM=F Big=F
 Integral buffers will be    262144 words long.
 Raffenetti 2 integral format.
 Two-electron integral symmetry is turned on.
 One-electron integrals computed using PRISM.
   8 Symmetry operations used in ECPInt.
 ECPInt:  NShTT=     136 NPrTT=     625 LenC2=     137 LenP2D=     612.
 LDataN:  DoStor=T MaxTD1= 4 Len=   56
 NBasis=    44 RedAO= T EigKep=  5.73D-03  NBF=    10     2     5     5     2    10     5     5
 NBsUse=    44 1.00D-06 EigRej= -1.00D+00 NBFU=    10     2     5     5     2    10     5     5
 Initial guess from the checkpoint file:  "C:\Users\emman\Escritorio\quimica-enlaces\molecula\fe2(full).chk"
 B after Tr=     0.000000    0.000000    0.000000
         Rot=    1.000000    0.000000    0.000000    0.000000 Ang=   0.00 deg.
 Initial guess orbital symmetries:
       Occupied  (SGG) (SGU) (SGG) (SGU) (PIU) (PIU) (PIG) (PIG)
                 (SGG) (PIU) (PIU) (SGG) (DLTG) (DLTG) (DLTU) (DLTU)
       Virtual   (SGG) (SGG) (DLTG) (SGG) (SGG) (DLTG) (PIG) (PIG)
                 (PIG) (PIG) (PIG) (PIG) (PIG) (PIG) (DLTU) (SGU)
                 (SGU) (DLTU) (SGU) (SGU) (SGU) (SGU) (PIU) (PIU)
                 (PIU) (PIU) (PIU) (PIU)
 ExpMin= 2.20D-02 ExpMax= 3.71D+01 ExpMxC= 3.71D+01 IAcc=3 IRadAn=         5 AccDes= 0.00D+00
 Harris functional with IExCor=  402 and IRadAn=       5 diagonalized for initial guess.
 HarFok:  IExCor=  402 AccDes= 0.00D+00 IRadAn=         5 IDoV= 1 UseB2=F ITyADJ=14
 ICtDFT=  3500011 ScaDFX=  1.000000  1.000000  1.000000  1.000000
 FoFCou: FMM=F IPFlag=           0 FMFlag=      100000 FMFlg1=           0
         NFxFlg=           0 DoJE=T BraDBF=F KetDBF=T FulRan=T
         wScrn=  0.000000 ICntrl=     500 IOpCl=  0 I1Cent=   200000004 NGrid=           0
         NMat0=    1 NMatS0=      1 NMatT0=    0 NMatD0=    1 NMtDS0=    0 NMtDT0=    0
 Petite list used in FoFCou.
 Keep R1 ints in memory in symmetry-blocked form, NReq=1384252.
 Requested convergence on RMS density matrix=1.00D-08 within 128 cycles.
 Requested convergence on MAX density matrix=1.00D-06.
 Requested convergence on             energy=1.00D-06.
 No special actions if energy rises.
 SCF Done:  E(RB3LYP) =  -246.541092307     A.U. after    9 cycles
            NFock=  9  Conv=0.18D-08     -V/T= 2.7398
   8 Symmetry operations used in ECPInt.
 ECPInt:  NShTT=     136 NPrTT=     625 LenC2=     137 LenP2D=     612.
 LDataN:  DoStor=T MaxTD1= 5 Len=  102
 Calling FoFJK, ICntrl=      2127 FMM=F ISym2X=1 I1Cent= 0 IOpClX= 0 NMat=1 NMatS=1 NMatT=0.
 ***** Axes restored to original set *****
 -------------------------------------------------------------------
 Center     Atomic                   Forces (Hartrees/Bohr)
 Number     Number              X              Y              Z
 -------------------------------------------------------------------
      1       26          -0.096486187    0.000000000    0.000000000
      2       26           0.096486187    0.000000000    0.000000000
 -------------------------------------------------------------------
 Cartesian Forces:  Max     0.096486187 RMS     0.055706326

 GradGradGradGradGradGradGradGradGradGradGradGradGradGradGradGradGradGrad
 Berny optimization.
 Internal  Forces:  Max     0.096486187 RMS     0.096486187
 Search for a local minimum.
 Step number   1 out of a maximum of   20 on scan point     6 out of    26
 All quantities printed in internal units (Hartrees-Bohrs-Radians)
 Mixed Optimization -- RFO/linear search
 Second derivative matrix not updated -- first step.
 The second derivative matrix:
                          R1
           R1          17.34000
 ITU=  0
     Eigenvalues --- 1000.00000
 RFO step:  Lambda= 0.00000000D+00 EMin= 1.00000000D+03
 Linear search not attempted -- first point.
 Iteration  1 RMS(Cart)=  0.00000000 RMS(Int)=  0.00000000
 Iteration  1 RMS(Cart)=  0.00000000 RMS(Int)=  0.00000000
 ClnCor:  largest displacement from symmetrization is 1.97D-31 for atom     2.
 Variable       Old X    -DE/DX   Delta X   Delta X   Delta X     New X
                                 (Linear)    (Quad)   (Total)
    R1        3.77945  -0.09649   0.00000   0.00000   0.00000   3.77945
         Item               Value     Threshold  Converged?
 Maximum Force            0.000000     0.000450     YES
 RMS     Force            0.000000     0.000300     YES
 Maximum Displacement     0.000000     0.001800     YES
 RMS     Displacement     0.000000     0.001200     YES
 Predicted change in Energy=-4.284847D-17
 Optimization completed.
    -- Stationary point found.
                           ----------------------------
                           !   Optimized Parameters   !
                           ! (Angstroms and Degrees)  !
 --------------------------                            --------------------------
 ! Name  Definition              Value          Derivative Info.                !
 --------------------------------------------------------------------------------
 ! R1    R(1,2)                  2.0            -DE/DX =   -0.0965              !
 --------------------------------------------------------------------------------
 Iteration  1 RMS(Cart)=  0.14142136 RMS(Int)=  0.17794523
 Iteration  2 RMS(Cart)=  0.12582628 RMS(Int)=  0.00000000
 Iteration  3 RMS(Cart)=  0.00000000 RMS(Int)=  0.00000000
 Iteration  1 RMS(Cart)=  0.00000000 RMS(Int)=  0.00000000
 GradGradGradGradGradGradGradGradGradGradGradGradGradGradGradGradGradGrad

                          Input orientation:                          
 ---------------------------------------------------------------------
 Center     Atomic      Atomic             Coordinates (Angstroms)
 Number     Number       Type             X           Y           Z
 ---------------------------------------------------------------------
      1         26           0       -0.398371   -1.123778    0.000000
      2         26           0       -2.598371   -1.123778    0.000000
 ---------------------------------------------------------------------
 Stoichiometry    Fe2
 Framework group  D*H[C*(Fe.Fe)]
 Deg. of freedom     1
 Full point group                 D*H     NOp   8
 Largest Abelian subgroup         D2H     NOp   8
 Largest concise Abelian subgroup C2      NOp   2
                         Standard orientation:                         
 ---------------------------------------------------------------------
 Center     Atomic      Atomic             Coordinates (Angstroms)
 Number     Number       Type             X           Y           Z
 ---------------------------------------------------------------------
      1         26           0        0.000000    0.000000    1.100000
      2         26           0        0.000000    0.000000   -1.100000
 ---------------------------------------------------------------------
 Rotational constants (GHZ):      0.0000000      3.7335215      3.7335215
 Standard basis: LANL2DZ (5D, 7F)
 There are    12 symmetry adapted cartesian basis functions of AG  symmetry.
 There are     2 symmetry adapted cartesian basis functions of B1G symmetry.
 There are     5 symmetry adapted cartesian basis functions of B2G symmetry.
 There are     5 symmetry adapted cartesian basis functions of B3G symmetry.
 There are     2 symmetry adapted cartesian basis functions of AU  symmetry.
 There are    12 symmetry adapted cartesian basis functions of B1U symmetry.
 There are     5 symmetry adapted cartesian basis functions of B2U symmetry.
 There are     5 symmetry adapted cartesian basis functions of B3U symmetry.
 There are    10 symmetry adapted basis functions of AG  symmetry.
 There are     2 symmetry adapted basis functions of B1G symmetry.
 There are     5 symmetry adapted basis functions of B2G symmetry.
 There are     5 symmetry adapted basis functions of B3G symmetry.
 There are     2 symmetry adapted basis functions of AU  symmetry.
 There are    10 symmetry adapted basis functions of B1U symmetry.
 There are     5 symmetry adapted basis functions of B2U symmetry.
 There are     5 symmetry adapted basis functions of B3U symmetry.
    44 basis functions,   104 primitive gaussians,    48 cartesian basis functions
    16 alpha electrons       16 beta electrons
       nuclear repulsion energy        61.5769842723 Hartrees.
 NAtoms=    2 NActive=    2 NUniq=    1 SFac= 4.00D+00 NAtFMM=   60 NAOKFM=F Big=F
 Integral buffers will be    262144 words long.
 Raffenetti 2 integral format.
 Two-electron integral symmetry is turned on.
 One-electron integrals computed using PRISM.
   8 Symmetry operations used in ECPInt.
 ECPInt:  NShTT=     136 NPrTT=     625 LenC2=     137 LenP2D=     610.
 LDataN:  DoStor=T MaxTD1= 4 Len=   56
 NBasis=    44 RedAO= T EigKep=  8.12D-03  NBF=    10     2     5     5     2    10     5     5
 NBsUse=    44 1.00D-06 EigRej= -1.00D+00 NBFU=    10     2     5     5     2    10     5     5
 Initial guess from the checkpoint file:  "C:\Users\emman\Escritorio\quimica-enlaces\molecula\fe2(full).chk"
 B after Tr=     0.000000    0.000000    0.000000
         Rot=    1.000000    0.000000    0.000000    0.000000 Ang=   0.00 deg.
 Initial guess orbital symmetries:
       Occupied  (SGG) (SGU) (SGG) (SGU) (PIU) (PIU) (PIG) (PIG)
                 (SGG) (PIU) (PIU) (SGG) (DLTG) (DLTG) (DLTU) (DLTU)
       Virtual   (SGG) (SGG) (DLTG) (SGG) (SGG) (DLTG) (PIG) (PIG)
                 (PIG) (PIG) (PIG) (PIG) (PIG) (PIG) (DLTU) (SGU)
                 (SGU) (DLTU) (SGU) (SGU) (SGU) (SGU) (PIU) (PIU)
                 (PIU) (PIU) (PIU) (PIU)
 ExpMin= 2.20D-02 ExpMax= 3.71D+01 ExpMxC= 3.71D+01 IAcc=3 IRadAn=         5 AccDes= 0.00D+00
 Harris functional with IExCor=  402 and IRadAn=       5 diagonalized for initial guess.
 HarFok:  IExCor=  402 AccDes= 0.00D+00 IRadAn=         5 IDoV= 1 UseB2=F ITyADJ=14
 ICtDFT=  3500011 ScaDFX=  1.000000  1.000000  1.000000  1.000000
 FoFCou: FMM=F IPFlag=           0 FMFlag=      100000 FMFlg1=           0
         NFxFlg=           0 DoJE=T BraDBF=F KetDBF=T FulRan=T
         wScrn=  0.000000 ICntrl=     500 IOpCl=  0 I1Cent=   200000004 NGrid=           0
         NMat0=    1 NMatS0=      1 NMatT0=    0 NMatD0=    1 NMtDS0=    0 NMtDT0=    0
 Petite list used in FoFCou.
 Keep R1 ints in memory in symmetry-blocked form, NReq=1384252.
 Requested convergence on RMS density matrix=1.00D-08 within 128 cycles.
 Requested convergence on MAX density matrix=1.00D-06.
 Requested convergence on             energy=1.00D-06.
 No special actions if energy rises.
 SCF Done:  E(RB3LYP) =  -246.501820053     A.U. after    8 cycles
            NFock=  8  Conv=0.32D-08     -V/T= 2.7404
   8 Symmetry operations used in ECPInt.
 ECPInt:  NShTT=     136 NPrTT=     625 LenC2=     137 LenP2D=     610.
 LDataN:  DoStor=T MaxTD1= 5 Len=  102
 Calling FoFJK, ICntrl=      2127 FMM=F ISym2X=1 I1Cent= 0 IOpClX= 0 NMat=1 NMatS=1 NMatT=0.
 ***** Axes restored to original set *****
 -------------------------------------------------------------------
 Center     Atomic                   Forces (Hartrees/Bohr)
 Number     Number              X              Y              Z
 -------------------------------------------------------------------
      1       26          -0.106679373    0.000000000    0.000000000
      2       26           0.106679373    0.000000000    0.000000000
 -------------------------------------------------------------------
 Cartesian Forces:  Max     0.106679373 RMS     0.061591365

 GradGradGradGradGradGradGradGradGradGradGradGradGradGradGradGradGradGrad
 Berny optimization.
 Internal  Forces:  Max     0.106679373 RMS     0.106679373
 Search for a local minimum.
 Step number   1 out of a maximum of   20 on scan point     7 out of    26
 All quantities printed in internal units (Hartrees-Bohrs-Radians)
 Mixed Optimization -- RFO/linear search
 Second derivative matrix not updated -- first step.
 The second derivative matrix:
                          R1
           R1          17.34000
 ITU=  0
     Eigenvalues --- 1000.00000
 RFO step:  Lambda= 0.00000000D+00 EMin= 1.00000000D+03
 Linear search not attempted -- first point.
 Iteration  1 RMS(Cart)=  0.00000000 RMS(Int)=  0.00000000
 Iteration  1 RMS(Cart)=  0.00000000 RMS(Int)=  0.00000000
 ClnCor:  largest displacement from symmetrization is 0.00D+00 for atom     0.
 Variable       Old X    -DE/DX   Delta X   Delta X   Delta X     New X
                                 (Linear)    (Quad)   (Total)
    R1        4.15740  -0.10668   0.00000   0.00000   0.00000   4.15740
         Item               Value     Threshold  Converged?
 Maximum Force            0.000000     0.000450     YES
 RMS     Force            0.000000     0.000300     YES
 Maximum Displacement     0.000000     0.001800     YES
 RMS     Displacement     0.000000     0.001200     YES
 Predicted change in Energy= 0.000000D+00
 Optimization completed.
    -- Stationary point found.
                           ----------------------------
                           !   Optimized Parameters   !
                           ! (Angstroms and Degrees)  !
 --------------------------                            --------------------------
 ! Name  Definition              Value          Derivative Info.                !
 --------------------------------------------------------------------------------
 ! R1    R(1,2)                  2.2            -DE/DX =   -0.1067              !
 --------------------------------------------------------------------------------
 Iteration  1 RMS(Cart)=  0.14142136 RMS(Int)=  0.17794523
 Iteration  2 RMS(Cart)=  0.12582628 RMS(Int)=  0.00000000
 Iteration  3 RMS(Cart)=  0.00000000 RMS(Int)=  0.00000000
 Iteration  1 RMS(Cart)=  0.00000000 RMS(Int)=  0.00000000
 GradGradGradGradGradGradGradGradGradGradGradGradGradGradGradGradGradGrad

                          Input orientation:                          
 ---------------------------------------------------------------------
 Center     Atomic      Atomic             Coordinates (Angstroms)
 Number     Number       Type             X           Y           Z
 ---------------------------------------------------------------------
      1         26           0       -0.298371   -1.123778    0.000000
      2         26           0       -2.698371   -1.123778    0.000000
 ---------------------------------------------------------------------
 Stoichiometry    Fe2
 Framework group  D*H[C*(Fe.Fe)]
 Deg. of freedom     1
 Full point group                 D*H     NOp   8
 Largest Abelian subgroup         D2H     NOp   8
 Largest concise Abelian subgroup C2      NOp   2
                         Standard orientation:                         
 ---------------------------------------------------------------------
 Center     Atomic      Atomic             Coordinates (Angstroms)
 Number     Number       Type             X           Y           Z
 ---------------------------------------------------------------------
      1         26           0        0.000000    0.000000    1.200000
      2         26           0        0.000000    0.000000   -1.200000
 ---------------------------------------------------------------------
 Rotational constants (GHZ):      0.0000000      3.1371952      3.1371952
 Standard basis: LANL2DZ (5D, 7F)
 There are    12 symmetry adapted cartesian basis functions of AG  symmetry.
 There are     2 symmetry adapted cartesian basis functions of B1G symmetry.
 There are     5 symmetry adapted cartesian basis functions of B2G symmetry.
 There are     5 symmetry adapted cartesian basis functions of B3G symmetry.
 There are     2 symmetry adapted cartesian basis functions of AU  symmetry.
 There are    12 symmetry adapted cartesian basis functions of B1U symmetry.
 There are     5 symmetry adapted cartesian basis functions of B2U symmetry.
 There are     5 symmetry adapted cartesian basis functions of B3U symmetry.
 There are    10 symmetry adapted basis functions of AG  symmetry.
 There are     2 symmetry adapted basis functions of B1G symmetry.
 There are     5 symmetry adapted basis functions of B2G symmetry.
 There are     5 symmetry adapted basis functions of B3G symmetry.
 There are     2 symmetry adapted basis functions of AU  symmetry.
 There are    10 symmetry adapted basis functions of B1U symmetry.
 There are     5 symmetry adapted basis functions of B2U symmetry.
 There are     5 symmetry adapted basis functions of B3U symmetry.
    44 basis functions,   104 primitive gaussians,    48 cartesian basis functions
    16 alpha electrons       16 beta electrons
       nuclear repulsion energy        56.4455689163 Hartrees.
 NAtoms=    2 NActive=    2 NUniq=    1 SFac= 4.00D+00 NAtFMM=   60 NAOKFM=F Big=F
 Integral buffers will be    262144 words long.
 Raffenetti 2 integral format.
 Two-electron integral symmetry is turned on.
 One-electron integrals computed using PRISM.
   8 Symmetry operations used in ECPInt.
 ECPInt:  NShTT=     136 NPrTT=     625 LenC2=     137 LenP2D=     609.
 LDataN:  DoStor=T MaxTD1= 4 Len=   56
 NBasis=    44 RedAO= T EigKep=  1.12D-02  NBF=    10     2     5     5     2    10     5     5
 NBsUse=    44 1.00D-06 EigRej= -1.00D+00 NBFU=    10     2     5     5     2    10     5     5
 Initial guess from the checkpoint file:  "C:\Users\emman\Escritorio\quimica-enlaces\molecula\fe2(full).chk"
 B after Tr=     0.000000    0.000000    0.000000
         Rot=    1.000000    0.000000    0.000000    0.000000 Ang=   0.00 deg.
 Initial guess orbital symmetries:
       Occupied  (SGG) (SGU) (SGG) (SGU) (PIU) (PIU) (PIG) (PIG)
                 (SGG) (PIU) (PIU) (SGG) (DLTG) (DLTG) (DLTU) (DLTU)
       Virtual   (SGG) (SGG) (DLTG) (SGG) (SGG) (DLTG) (PIG) (PIG)
                 (PIG) (PIG) (PIG) (PIG) (PIG) (PIG) (DLTU) (SGU)
                 (DLTU) (SGU) (SGU) (SGU) (SGU) (SGU) (PIU) (PIU)
                 (PIU) (PIU) (PIU) (PIU)
 ExpMin= 2.20D-02 ExpMax= 3.71D+01 ExpMxC= 3.71D+01 IAcc=3 IRadAn=         5 AccDes= 0.00D+00
 Harris functional with IExCor=  402 and IRadAn=       5 diagonalized for initial guess.
 HarFok:  IExCor=  402 AccDes= 0.00D+00 IRadAn=         5 IDoV= 1 UseB2=F ITyADJ=14
 ICtDFT=  3500011 ScaDFX=  1.000000  1.000000  1.000000  1.000000
 FoFCou: FMM=F IPFlag=           0 FMFlag=      100000 FMFlg1=           0
         NFxFlg=           0 DoJE=T BraDBF=F KetDBF=T FulRan=T
         wScrn=  0.000000 ICntrl=     500 IOpCl=  0 I1Cent=   200000004 NGrid=           0
         NMat0=    1 NMatS0=      1 NMatT0=    0 NMatD0=    1 NMtDS0=    0 NMtDT0=    0
 Petite list used in FoFCou.
 Keep R1 ints in memory in symmetry-blocked form, NReq=1384252.
 Requested convergence on RMS density matrix=1.00D-08 within 128 cycles.
 Requested convergence on MAX density matrix=1.00D-06.
 Requested convergence on             energy=1.00D-06.
 No special actions if energy rises.
 SCF Done:  E(RB3LYP) =  -246.462708720     A.U. after    8 cycles
            NFock=  8  Conv=0.32D-08     -V/T= 2.7387
   8 Symmetry operations used in ECPInt.
 ECPInt:  NShTT=     136 NPrTT=     625 LenC2=     137 LenP2D=     609.
 LDataN:  DoStor=T MaxTD1= 5 Len=  102
 Calling FoFJK, ICntrl=      2127 FMM=F ISym2X=1 I1Cent= 0 IOpClX= 0 NMat=1 NMatS=1 NMatT=0.
 ***** Axes restored to original set *****
 -------------------------------------------------------------------
 Center     Atomic                   Forces (Hartrees/Bohr)
 Number     Number              X              Y              Z
 -------------------------------------------------------------------
      1       26          -0.099208914    0.000000000    0.000000000
      2       26           0.099208914    0.000000000    0.000000000
 -------------------------------------------------------------------
 Cartesian Forces:  Max     0.099208914 RMS     0.057278293

 GradGradGradGradGradGradGradGradGradGradGradGradGradGradGradGradGradGrad
 Berny optimization.
 Internal  Forces:  Max     0.099208914 RMS     0.099208914
 Search for a local minimum.
 Step number   1 out of a maximum of   20 on scan point     8 out of    26
 All quantities printed in internal units (Hartrees-Bohrs-Radians)
 Mixed Optimization -- RFO/linear search
 Second derivative matrix not updated -- first step.
 The second derivative matrix:
                          R1
           R1          17.34000
 ITU=  0
     Eigenvalues --- 1000.00000
 RFO step:  Lambda= 0.00000000D+00 EMin= 1.00000000D+03
 Linear search not attempted -- first point.
 Iteration  1 RMS(Cart)=  0.00000000 RMS(Int)=  0.00000000
 Iteration  1 RMS(Cart)=  0.00000000 RMS(Int)=  0.00000000
 ClnCor:  largest displacement from symmetrization is 8.88D-16 for atom     2.
 Variable       Old X    -DE/DX   Delta X   Delta X   Delta X     New X
                                 (Linear)    (Quad)   (Total)
    R1        4.53534  -0.09921   0.00000   0.00000   0.00000   4.53534
         Item               Value     Threshold  Converged?
 Maximum Force            0.000000     0.000450     YES
 RMS     Force            0.000000     0.000300     YES
 Maximum Displacement     0.000000     0.001800     YES
 RMS     Displacement     0.000000     0.001200     YES
 Predicted change in Energy=-1.762304D-16
 Optimization completed.
    -- Stationary point found.
                           ----------------------------
                           !   Optimized Parameters   !
                           ! (Angstroms and Degrees)  !
 --------------------------                            --------------------------
 ! Name  Definition              Value          Derivative Info.                !
 --------------------------------------------------------------------------------
 ! R1    R(1,2)                  2.4            -DE/DX =   -0.0992              !
 --------------------------------------------------------------------------------
 Iteration  1 RMS(Cart)=  0.14142136 RMS(Int)=  0.17794523
 Iteration  2 RMS(Cart)=  0.12582628 RMS(Int)=  0.00000000
 Iteration  3 RMS(Cart)=  0.00000000 RMS(Int)=  0.00000000
 Iteration  1 RMS(Cart)=  0.00000000 RMS(Int)=  0.00000000
 GradGradGradGradGradGradGradGradGradGradGradGradGradGradGradGradGradGrad

                          Input orientation:                          
 ---------------------------------------------------------------------
 Center     Atomic      Atomic             Coordinates (Angstroms)
 Number     Number       Type             X           Y           Z
 ---------------------------------------------------------------------
      1         26           0       -0.198371   -1.123778    0.000000
      2         26           0       -2.798371   -1.123778    0.000000
 ---------------------------------------------------------------------
 Stoichiometry    Fe2
 Framework group  D*H[C*(Fe.Fe)]
 Deg. of freedom     1
 Full point group                 D*H     NOp   8
 Largest Abelian subgroup         D2H     NOp   8
 Largest concise Abelian subgroup C2      NOp   2
                         Standard orientation:                         
 ---------------------------------------------------------------------
 Center     Atomic      Atomic             Coordinates (Angstroms)
 Number     Number       Type             X           Y           Z
 ---------------------------------------------------------------------
      1         26           0        0.000000    0.000000    1.300000
      2         26           0        0.000000    0.000000   -1.300000
 ---------------------------------------------------------------------
 Rotational constants (GHZ):      0.0000000      2.6731130      2.6731130
 Standard basis: LANL2DZ (5D, 7F)
 There are    12 symmetry adapted cartesian basis functions of AG  symmetry.
 There are     2 symmetry adapted cartesian basis functions of B1G symmetry.
 There are     5 symmetry adapted cartesian basis functions of B2G symmetry.
 There are     5 symmetry adapted cartesian basis functions of B3G symmetry.
 There are     2 symmetry adapted cartesian basis functions of AU  symmetry.
 There are    12 symmetry adapted cartesian basis functions of B1U symmetry.
 There are     5 symmetry adapted cartesian basis functions of B2U symmetry.
 There are     5 symmetry adapted cartesian basis functions of B3U symmetry.
 There are    10 symmetry adapted basis functions of AG  symmetry.
 There are     2 symmetry adapted basis functions of B1G symmetry.
 There are     5 symmetry adapted basis functions of B2G symmetry.
 There are     5 symmetry adapted basis functions of B3G symmetry.
 There are     2 symmetry adapted basis functions of AU  symmetry.
 There are    10 symmetry adapted basis functions of B1U symmetry.
 There are     5 symmetry adapted basis functions of B2U symmetry.
 There are     5 symmetry adapted basis functions of B3U symmetry.
    44 basis functions,   104 primitive gaussians,    48 cartesian basis functions
    16 alpha electrons       16 beta electrons
       nuclear repulsion energy        52.1036020766 Hartrees.
 NAtoms=    2 NActive=    2 NUniq=    1 SFac= 4.00D+00 NAtFMM=   60 NAOKFM=F Big=F
 Integral buffers will be    262144 words long.
 Raffenetti 2 integral format.
 Two-electron integral symmetry is turned on.
 One-electron integrals computed using PRISM.
   8 Symmetry operations used in ECPInt.
 ECPInt:  NShTT=     136 NPrTT=     625 LenC2=     137 LenP2D=     605.
 LDataN:  DoStor=T MaxTD1= 4 Len=   56
 NBasis=    44 RedAO= T EigKep=  1.50D-02  NBF=    10     2     5     5     2    10     5     5
 NBsUse=    44 1.00D-06 EigRej= -1.00D+00 NBFU=    10     2     5     5     2    10     5     5
 Initial guess from the checkpoint file:  "C:\Users\emman\Escritorio\quimica-enlaces\molecula\fe2(full).chk"
 B after Tr=     0.000000    0.000000    0.000000
         Rot=    1.000000    0.000000    0.000000    0.000000 Ang=   0.00 deg.
 Initial guess orbital symmetries:
       Occupied  (SGG) (SGU) (SGG) (SGU) (PIU) (PIU) (PIG) (PIG)
                 (SGG) (PIU) (PIU) (SGG) (DLTG) (DLTG) (DLTU) (DLTU)
       Virtual   (SGG) (SGG) (DLTG) (SGG) (SGG) (DLTG) (PIG) (PIG)
                 (PIG) (PIG) (PIG) (PIG) (PIG) (PIG) (DLTU) (SGU)
                 (DLTU) (SGU) (SGU) (SGU) (SGU) (SGU) (PIU) (PIU)
                 (PIU) (PIU) (PIU) (PIU)
 ExpMin= 2.20D-02 ExpMax= 3.71D+01 ExpMxC= 3.71D+01 IAcc=3 IRadAn=         5 AccDes= 0.00D+00
 Harris functional with IExCor=  402 and IRadAn=       5 diagonalized for initial guess.
 HarFok:  IExCor=  402 AccDes= 0.00D+00 IRadAn=         5 IDoV= 1 UseB2=F ITyADJ=14
 ICtDFT=  3500011 ScaDFX=  1.000000  1.000000  1.000000  1.000000
 FoFCou: FMM=F IPFlag=           0 FMFlag=      100000 FMFlg1=           0
         NFxFlg=           0 DoJE=T BraDBF=F KetDBF=T FulRan=T
         wScrn=  0.000000 ICntrl=     500 IOpCl=  0 I1Cent=   200000004 NGrid=           0
         NMat0=    1 NMatS0=      1 NMatT0=    0 NMatD0=    1 NMtDS0=    0 NMtDT0=    0
 Petite list used in FoFCou.
 Keep R1 ints in memory in symmetry-blocked form, NReq=1384252.
 Requested convergence on RMS density matrix=1.00D-08 within 128 cycles.
[...]
                 (PIG) (PIG) (PIG) (PIG) (PIG) (?B) (?B) (SGU)
                 (?B) (?B) (?B) (SGU) (PIU) (?C) (?C) (PIU) (?C)
                 (?C) (?C)
 ExpMin= 2.20D-02 ExpMax= 3.71D+01 ExpMxC= 3.71D+01 IAcc=3 IRadAn=         5 AccDes= 0.00D+00
 Harris functional with IExCor=  402 and IRadAn=       5 diagonalized for initial guess.
 HarFok:  IExCor=  402 AccDes= 0.00D+00 IRadAn=         5 IDoV= 1 UseB2=F ITyADJ=14
 ICtDFT=  3500011 ScaDFX=  1.000000  1.000000  1.000000  1.000000
 FoFCou: FMM=F IPFlag=           0 FMFlag=      100000 FMFlg1=           0
         NFxFlg=           0 DoJE=T BraDBF=F KetDBF=T FulRan=T
         wScrn=  0.000000 ICntrl=     500 IOpCl=  0 I1Cent=   200000004 NGrid=           0
         NMat0=    1 NMatS0=      1 NMatT0=    0 NMatD0=    1 NMtDS0=    0 NMtDT0=    0
 Petite list used in FoFCou.
 Keep R1 ints in memory in symmetry-blocked form, NReq=1384252.
 Requested convergence on RMS density matrix=1.00D-08 within 128 cycles.
 Requested convergence on MAX density matrix=1.00D-06.
 Requested convergence on             energy=1.00D-06.
 No special actions if energy rises.
 SCF Done:  E(RB3LYP) =  -246.401233204     A.U. after   10 cycles
            NFock= 10  Conv=0.11D-08     -V/T= 2.7248
   8 Symmetry operations used in ECPInt.
 ECPInt:  NShTT=     136 NPrTT=     625 LenC2=     137 LenP2D=     497.
 LDataN:  DoStor=T MaxTD1= 5 Len=  102
 Calling FoFJK, ICntrl=      2127 FMM=F ISym2X=1 I1Cent= 0 IOpClX= 0 NMat=1 NMatS=1 NMatT=0.
 ***** Axes restored to original set *****
 -------------------------------------------------------------------
 Center     Atomic                   Forces (Hartrees/Bohr)
 Number     Number              X              Y              Z
 -------------------------------------------------------------------
      1       26          -0.004484306    0.000000000    0.000000000
      2       26           0.004484306    0.000000000    0.000000000
 -------------------------------------------------------------------
 Cartesian Forces:  Max     0.004484306 RMS     0.002589015

 GradGradGradGradGradGradGradGradGradGradGradGradGradGradGradGradGradGrad
 Berny optimization.
 Internal  Forces:  Max     0.004484306 RMS     0.004484306
 Search for a local minimum.
 Step number   1 out of a maximum of   20 on scan point    25 out of    26
 All quantities printed in internal units (Hartrees-Bohrs-Radians)
 Mixed Optimization -- RFO/linear search
 Second derivative matrix not updated -- first step.
 The second derivative matrix:
                          R1
           R1          17.34000
 ITU=  0
     Eigenvalues --- 1000.00000
 RFO step:  Lambda= 0.00000000D+00 EMin= 1.00000000D+03
 Linear search not attempted -- first point.
 Iteration  1 RMS(Cart)=  0.00000000 RMS(Int)=  0.00000000
 Iteration  1 RMS(Cart)=  0.00000000 RMS(Int)=  0.00000000
 ClnCor:  largest displacement from symmetrization is 1.78D-15 for atom     2.
 Variable       Old X    -DE/DX   Delta X   Delta X   Delta X     New X
                                 (Linear)    (Quad)   (Total)
    R1       10.96041  -0.00448   0.00000   0.00000   0.00000  10.96041
         Item               Value     Threshold  Converged?
 Maximum Force            0.000000     0.000450     YES
 RMS     Force            0.000000     0.000300     YES
 Maximum Displacement     0.000000     0.001800     YES
 RMS     Displacement     0.000000     0.001200     YES
 Predicted change in Energy=-7.965727D-18
 Optimization completed.
    -- Stationary point found.
                           ----------------------------
                           !   Optimized Parameters   !
                           ! (Angstroms and Degrees)  !
 --------------------------                            --------------------------
 ! Name  Definition              Value          Derivative Info.                !
 --------------------------------------------------------------------------------
 ! R1    R(1,2)                  5.8            -DE/DX =   -0.0045              !
 --------------------------------------------------------------------------------
 Iteration  1 RMS(Cart)=  0.14142136 RMS(Int)=  0.17794523
 Iteration  2 RMS(Cart)=  0.12582628 RMS(Int)=  0.00000000
 Iteration  3 RMS(Cart)=  0.00000000 RMS(Int)=  0.00000000
 Iteration  1 RMS(Cart)=  0.00000000 RMS(Int)=  0.00000000
 GradGradGradGradGradGradGradGradGradGradGradGradGradGradGradGradGradGrad

                          Input orientation:                          
 ---------------------------------------------------------------------
 Center     Atomic      Atomic             Coordinates (Angstroms)
 Number     Number       Type             X           Y           Z
 ---------------------------------------------------------------------
      1         26           0        1.501629   -1.123778    0.000000
      2         26           0       -4.498371   -1.123778    0.000000
 ---------------------------------------------------------------------
 Stoichiometry    Fe2
 Framework group  D*H[C*(Fe.Fe)]
 Deg. of freedom     1
 Full point group                 D*H     NOp   8
 Largest Abelian subgroup         D2H     NOp   8
 Largest concise Abelian subgroup C2      NOp   2
                         Standard orientation:                         
 ---------------------------------------------------------------------
 Center     Atomic      Atomic             Coordinates (Angstroms)
 Number     Number       Type             X           Y           Z
 ---------------------------------------------------------------------
      1         26           0        0.000000    0.000000    3.000000
      2         26           0        0.000000    0.000000   -3.000000
 ---------------------------------------------------------------------
 Rotational constants (GHZ):      0.0000000      0.5019512      0.5019512
 Standard basis: LANL2DZ (5D, 7F)
 There are    12 symmetry adapted cartesian basis functions of AG  symmetry.
 There are     2 symmetry adapted cartesian basis functions of B1G symmetry.
 There are     5 symmetry adapted cartesian basis functions of B2G symmetry.
 There are     5 symmetry adapted cartesian basis functions of B3G symmetry.
 There are     2 symmetry adapted cartesian basis functions of AU  symmetry.
 There are    12 symmetry adapted cartesian basis functions of B1U symmetry.
 There are     5 symmetry adapted cartesian basis functions of B2U symmetry.
 There are     5 symmetry adapted cartesian basis functions of B3U symmetry.
 There are    10 symmetry adapted basis functions of AG  symmetry.
 There are     2 symmetry adapted basis functions of B1G symmetry.
 There are     5 symmetry adapted basis functions of B2G symmetry.
 There are     5 symmetry adapted basis functions of B3G symmetry.
 There are     2 symmetry adapted basis functions of AU  symmetry.
 There are    10 symmetry adapted basis functions of B1U symmetry.
 There are     5 symmetry adapted basis functions of B2U symmetry.
 There are     5 symmetry adapted basis functions of B3U symmetry.
    44 basis functions,   104 primitive gaussians,    48 cartesian basis functions
    16 alpha electrons       16 beta electrons
       nuclear repulsion energy        22.5782275665 Hartrees.
 NAtoms=    2 NActive=    2 NUniq=    1 SFac= 4.00D+00 NAtFMM=   60 NAOKFM=F Big=F
 Integral buffers will be    262144 words long.
 Raffenetti 2 integral format.
 Two-electron integral symmetry is turned on.
 One-electron integrals computed using PRISM.
   8 Symmetry operations used in ECPInt.
 ECPInt:  NShTT=     136 NPrTT=     625 LenC2=     136 LenP2D=     496.
 LDataN:  DoStor=T MaxTD1= 4 Len=   56
 NBasis=    44 RedAO= T EigKep=  1.19D-01  NBF=    10     2     5     5     2    10     5     5
 NBsUse=    44 1.00D-06 EigRej= -1.00D+00 NBFU=    10     2     5     5     2    10     5     5
 Initial guess from the checkpoint file:  "C:\Users\emman\Escritorio\quimica-enlaces\molecula\fe2(full).chk"
 B after Tr=     0.000000    0.000000    0.000000
         Rot=    1.000000    0.000000    0.000000    0.000000 Ang=   0.00 deg.
 Initial guess orbital symmetries:
       Occupied  (SGU) (SGG) (SGG) (SGU) (PIG) (PIU) (PIU) (PIG)
                 (?A) (?B) (?A) (?B) (?A) (?B) (?A) (?C)
       Virtual   (SGG) (SGG) (?D) (?D) (SGG) (?D) (PIG) (PIG) (PIG)
                 (PIG) (PIG) (PIG) (PIG) (PIG) (?B) (?B) (SGU)
                 (?B) (?B) (?B) (SGU) (PIU) (?C) (?C) (PIU) (?C)
                 (?C) (?C)
 ExpMin= 2.20D-02 ExpMax= 3.71D+01 ExpMxC= 3.71D+01 IAcc=3 IRadAn=         5 AccDes= 0.00D+00
 Harris functional with IExCor=  402 and IRadAn=       5 diagonalized for initial guess.
 HarFok:  IExCor=  402 AccDes= 0.00D+00 IRadAn=         5 IDoV= 1 UseB2=F ITyADJ=14
 ICtDFT=  3500011 ScaDFX=  1.000000  1.000000  1.000000  1.000000
 FoFCou: FMM=F IPFlag=           0 FMFlag=      100000 FMFlg1=           0
         NFxFlg=           0 DoJE=T BraDBF=F KetDBF=T FulRan=T
         wScrn=  0.000000 ICntrl=     500 IOpCl=  0 I1Cent=   200000004 NGrid=           0
         NMat0=    1 NMatS0=      1 NMatT0=    0 NMatD0=    1 NMtDS0=    0 NMtDT0=    0
 Petite list used in FoFCou.
 Keep R1 ints in memory in symmetry-blocked form, NReq=1384252.
 Requested convergence on RMS density matrix=1.00D-08 within 128 cycles.
 Requested convergence on MAX density matrix=1.00D-06.
 Requested convergence on             energy=1.00D-06.
 No special actions if energy rises.
 SCF Done:  E(RB3LYP) =  -246.399659547     A.U. after    9 cycles
            NFock=  9  Conv=0.95D-08     -V/T= 2.7251
   8 Symmetry operations used in ECPInt.
 ECPInt:  NShTT=     136 NPrTT=     625 LenC2=     136 LenP2D=     496.
 LDataN:  DoStor=T MaxTD1= 5 Len=  102
 Calling FoFJK, ICntrl=      2127 FMM=F ISym2X=1 I1Cent= 0 IOpClX= 0 NMat=1 NMatS=1 NMatT=0.
 ***** Axes restored to original set *****
 -------------------------------------------------------------------
 Center     Atomic                   Forces (Hartrees/Bohr)
 Number     Number              X              Y              Z
 -------------------------------------------------------------------
      1       26          -0.003865479    0.000000000    0.000000000
      2       26           0.003865479    0.000000000    0.000000000
 -------------------------------------------------------------------
 Cartesian Forces:  Max     0.003865479 RMS     0.002231736

 GradGradGradGradGradGradGradGradGradGradGradGradGradGradGradGradGradGrad
 Berny optimization.
 Internal  Forces:  Max     0.003865479 RMS     0.003865479
 Search for a local minimum.
 Step number   1 out of a maximum of   20 on scan point    26 out of    26
 All quantities printed in internal units (Hartrees-Bohrs-Radians)
 Mixed Optimization -- RFO/linear search
 Second derivative matrix not updated -- first step.
 The second derivative matrix:
                          R1
           R1          17.34000
 ITU=  0
     Eigenvalues --- 1000.00000
 RFO step:  Lambda= 0.00000000D+00 EMin= 1.00000000D+03
 Linear search not attempted -- first point.
 Iteration  1 RMS(Cart)=  0.00000000 RMS(Int)=  0.00000000
 Iteration  1 RMS(Cart)=  0.00000000 RMS(Int)=  0.00000000
 ClnCor:  largest displacement from symmetrization is 0.00D+00 for atom     0.
 Variable       Old X    -DE/DX   Delta X   Delta X   Delta X     New X
                                 (Linear)    (Quad)   (Total)
    R1       11.33836  -0.00387   0.00000   0.00000   0.00000  11.33836
         Item               Value     Threshold  Converged?
 Maximum Force            0.000000     0.000450     YES
 RMS     Force            0.000000     0.000300     YES
 Maximum Displacement     0.000000     0.001800     YES
 RMS     Displacement     0.000000     0.001200     YES
 Predicted change in Energy= 0.000000D+00
 Optimization completed.
    -- Stationary point found.
                           ----------------------------
                           !   Optimized Parameters   !
                           ! (Angstroms and Degrees)  !
 --------------------------                            --------------------------
 ! Name  Definition              Value          Derivative Info.                !
 --------------------------------------------------------------------------------
 ! R1    R(1,2)                  6.0            -DE/DX =   -0.0039              !
 --------------------------------------------------------------------------------
 GradGradGradGradGradGradGradGradGradGradGradGradGradGradGradGradGradGrad

 Summary of Optimized Potential Surface Scan
                           1         2         3         4         5
     Eigenvalues --  -243.96985-245.88422-246.43298-246.56084-246.56926
           R1           1.00000   1.20000   1.40000   1.60000   1.80000
                           6         7         8         9        10
     Eigenvalues --  -246.54109-246.50182-246.46271-246.42721-246.39568
           R1           2.00000   2.20000   2.40000   2.60000   2.80000
                          11        12        13        14        15
     Eigenvalues --  -246.36826-246.34505-246.32574-246.30969-246.29616
           R1           3.00000   3.20000   3.40000   3.60000   3.80000
                          16        17        18        19        20
     Eigenvalues --  -246.28454-246.27448-246.26577-246.25829-246.25191
           R1           4.00000   4.20000   4.40000   4.60000   4.80000
                          21        22        23        24        25
     Eigenvalues --  -246.24651-246.24195-246.23809-246.40306-246.40123
           R1           5.00000   5.20000   5.40000   5.60000   5.80000
                          26
     Eigenvalues --  -246.39966
           R1           6.00000
                          Input orientation:                          
 ---------------------------------------------------------------------
 Center     Atomic      Atomic             Coordinates (Angstroms)
 Number     Number       Type             X           Y           Z
 ---------------------------------------------------------------------
      1         26           0        1.501629   -1.123778    0.000000
      2         26           0       -4.498371   -1.123778    0.000000
 ---------------------------------------------------------------------
 Stoichiometry    Fe2
 Framework group  D*H[C*(Fe.Fe)]
 Deg. of freedom     1
 Full point group                 D*H     NOp   8
 Largest Abelian subgroup         D2H     NOp   8
 Largest concise Abelian subgroup C2      NOp   2
                         Standard orientation:                         
 ---------------------------------------------------------------------
 Center     Atomic      Atomic             Coordinates (Angstroms)
 Number     Number       Type             X           Y           Z
 ---------------------------------------------------------------------
      1         26           0        0.000000    0.000000    3.000000
      2         26           0        0.000000    0.000000   -3.000000
 ---------------------------------------------------------------------
 Rotational constants (GHZ):      0.0000000      0.5019512      0.5019512

 **********************************************************************

            Population analysis using the SCF density.

 **********************************************************************

 Orbital symmetries:
       Occupied  (SGU) (SGG) (SGG) (SGU) (PIG) (PIU) (PIU) (PIG)
                 (?A) (?B) (?A) (?B) (?A) (?B) (?A) (PIU)
       Virtual   (?B) (PIG) (PIG) (PIU) (SGG) (PIU) (PIU) (PIG)
                 (PIG) (SGU) (SGU) (PIU) (PIU) (PIG) (PIG) (SGG)
                 (SGG) (?B) (?C) (PIU) (PIG) (?C) (?B) (?B) (?C)
                 (PIU) (PIG) (?B)
 Unable to determine electronic state:  an orbital has unidentified symmetry.
 Alpha  occ. eigenvalues --   -3.43451  -3.43451  -2.24957  -2.24955  -2.21015
 Alpha  occ. eigenvalues --   -2.21015  -2.17722  -2.17717  -0.25894  -0.25888
 Alpha  occ. eigenvalues --   -0.19443  -0.19443  -0.18494  -0.18393  -0.16389
 Alpha  occ. eigenvalues --   -0.15325
 Alpha virt. eigenvalues --   -0.14206  -0.13552  -0.08764  -0.08763  -0.03172
 Alpha virt. eigenvalues --   -0.02289  -0.02174  -0.01317  -0.01160  -0.00612
 Alpha virt. eigenvalues --    0.06333   0.07477   0.07651   0.08193   0.08346
 Alpha virt. eigenvalues --    0.08808   0.37892   0.53213   0.55540   0.58316
 Alpha virt. eigenvalues --    0.58351   0.58358   0.58360   0.58544   0.58718
 Alpha virt. eigenvalues --    0.58790   0.58823   0.63262
          Condensed to atoms (all electrons):
               1          2
     1  Fe  15.962929   0.037071
     2  Fe   0.037071  15.962929
 Mulliken charges:
               1
     1  Fe   0.000000
     2  Fe   0.000000
 Sum of Mulliken charges =   0.00000
 Mulliken charges with hydrogens summed into heavy atoms:
               1
     1  Fe   0.000000
     2  Fe   0.000000
 Electronic spatial extent (au):  <R**2>=           1097.2875
 Charge=              0.0000 electrons
 Dipole moment (field-independent basis, Debye):
    X=              0.0000    Y=              0.0000    Z=              0.0000  Tot=              0.0000
 Quadrupole moment (field-independent basis, Debye-Ang):
   XX=            -33.2688   YY=            -32.1176   ZZ=            -27.1800
   XY=              0.0000   XZ=              0.0000   YZ=              0.0000
 Traceless Quadrupole moment (field-independent basis, Debye-Ang):
   XX=             -2.4133   YY=             -1.2621   ZZ=              3.6754
   XY=              0.0000   XZ=              0.0000   YZ=              0.0000
 Octapole moment (field-independent basis, Debye-Ang**2):
  XXX=              0.0000  YYY=              0.0000  ZZZ=              0.0000  XYY=              0.0000
  XXY=              0.0000  XXZ=              0.0000  XZZ=              0.0000  YZZ=              0.0000
  YYZ=              0.0000  XYZ=              0.0000
 Hexadecapole moment (field-independent basis, Debye-Ang**3):
 XXXX=            -70.7832 YYYY=            -65.6766 ZZZZ=          -1672.1582 XXXY=              0.0000
 XXXZ=              0.0000 YYYX=              0.0000 YYYZ=              0.0000 ZZZX=              0.0000
 ZZZY=              0.0000 XXYY=            -22.7822 XXZZ=           -315.5246 YYZZ=           -304.3033
 XXYZ=              0.0000 YYXZ=              0.0000 ZZXY=              0.0000
 N-N= 2.257822756651D+01 E-N=-6.222575683758D+02  KE= 1.428352888830D+02
 Symmetry AG   KE= 3.814864890805D+01
 Symmetry B1G  KE= 1.269530172326D+01
 Symmetry B2G  KE= 7.686879627689D+00
 Symmetry B3G  KE= 7.684202150504D+00
 Symmetry AU   KE= 1.269544108193D+01
 Symmetry B1U  KE= 3.611884634020D+01
 Symmetry B2U  KE= 2.011873625981D+01
 Symmetry B3U  KE= 7.687232791570D+00
 1|1|UNPC-INANI_LAP|Scan|RB3LYP|LANL2DZ|Fe2|EMMAN|30-Mar-2026|0||# opt=
 modredundant b3lyp/lanl2dz||Title Card Required||0,1|Fe,1.50162871,-1.
 12377848,0.|Fe,-4.49837129,-1.12377848,0.||Version=IA32W-G09RevD.01|HF
 =-243.9698482,-245.8842172,-246.4329762,-246.5608422,-246.5692647,-246
 .5410923,-246.5018201,-246.4627087,-246.4272124,-246.3956791,-246.3682
 552,-246.3450483,-246.3257361,-246.3096925,-246.2961563,-246.2845432,-
 246.2744789,-246.2657736,-246.2582858,-246.2519118,-246.2465142,-246.2
 419503,-246.2380887,-246.4030639,-246.4012332,-246.3996595|RMSD=2.975e
 -009,3.174e-009,3.020e-009,1.648e-009,1.916e-009,1.813e-009,3.227e-009
 ,3.173e-009,6.985e-009,3.208e-009,9.806e-009,1.781e-009,3.670e-009,1.4
 96e-009,7.168e-009,8.704e-009,2.555e-009,4.403e-009,9.289e-010,1.098e-
 009,1.806e-010,1.731e-009,9.585e-009,2.241e-009,1.126e-009,9.544e-009|
 PG=D*H [C*(Fe1.Fe1)]||@


 ALMOST ALL THE CHEMICAL PROCESSES WHICH OCCUR IN NATURE,
 WHETHER IN ANIMAL OR VEGETABLE ORGANISMS,
 OR IN THE NON-LIVING SURFACE OF THE EARTH ... 
 TAKE PLACE BETWEEN SUBSTANCES IN SOLUTION

                                    -- W. OSTWALD, 1890
 Job cpu time:       0 days  0 hours  0 minutes 28.0 seconds.
 File lengths (MBytes):  RWF=      5 Int=      0 D2E=      0 Chk=      1 Scr=      1
 Normal termination of Gaussian 09 at Mon Mar 30 21:10:45 2026.
