 Entering Link 1 = C:\G09W\l1.exe PID=      4800.
  
 Copyright (c) 1988,1990,1992,1993,1995,1998,2003,2009,2013,
            Gaussian, Inc.  All Rights Reserved.
  
 This is part of the Gaussian(R) 09 program.  It is based on
 the Gaussian(R) 03 system (copyright 2003, Gaussian, Inc.),
 the Gaussian(R) 98 system (copyright 1998, Gaussian, Inc.),
 the Gaussian(R) 94 system (copyright 1995, Gaussian, Inc.),
 the Gaussian 92(TM) system (copyright 1992, Gaussian, Inc.),
 the Gaussian 90(TM) system (copyright 1990, Gaussian, Inc.),
 the Gaussian 88(TM) system (copyright 1988, Gaussian, Inc.),
 the Gaussian 86(TM) system (copyright 1986, Carnegie Mellon
 University), and the Gaussian 82(TM) system (copyright 1983,
 Carnegie Mellon University). Gaussian is a federally registered
 trademark of Gaussian, Inc.
  
 This software contains proprietary and confidential information,
 including trade secrets, belonging to Gaussian, Inc.
  
 This software is provided under written license and may be
 used, copied, transmitted, or stored only in accord with that
 written license.
  
 The following legend is applicable only to US Government
 contracts under FAR:
  
                    RESTRICTED RIGHTS LEGEND
  
 Use, reproduction and disclosure by the US Government is
 subject to restrictions as set forth in subparagraphs (a)
 and (c) of the Commercial Computer Software - Restricted
 Rights clause in FAR 52.227-19.
  
 Gaussian, Inc.
 340 Quinnipiac St., Bldg. 40, Wallingford CT 06492
  
  
 ---------------------------------------------------------------
 Warning -- This program may not be used in any manner that
 competes with the business of Gaussian, Inc. or will provide
 assistance to any competitor of Gaussian, Inc.  The licensee
 of this program is prohibited from giving any competitor of
 Gaussian, Inc. access to this program.  By using this program,
 the user acknowledges that Gaussian, Inc. is engaged in the
 business of creating and licensing software in the field of
 computational chemistry and represents and warrants to the
 licensee that it is not a competitor of Gaussian, Inc. and that
 it will not use this program in any manner prohibited above.
 ---------------------------------------------------------------
  

 Cite this work as:
 Gaussian 09, Revision D.01,
 M. J. Frisch, G. W. Trucks, H. B. Schlegel, G. E. Scuseria, 
 M. A. Robb, J. R. Cheeseman, G. Scalmani, V. Barone, B. Mennucci, 
 G. A. Petersson, H. Nakatsuji, M. Caricato, X. Li, H. P. Hratchian, 
 A. F. Izmaylov, J. Bloino, G. Zheng, J. L. Sonnenberg, M. Hada, 
 M. Ehara, K. Toyota, R. Fukuda, J. Hasegawa, M. Ishida, T. Nakajima, 
 Y. Honda, O. Kitao, H. Nakai, T. Vreven, J. A. Montgomery, Jr., 
 J. E. Peralta, F. Ogliaro, M. Bearpark, J. J. Heyd, E. Brothers, 
 K. N. Kudin, V. N. Staroverov, T. Keith, R. Kobayashi, J. Normand, 
 K. Raghavachari, A. Rendell, J. C. Burant, S. S. Iyengar, J. Tomasi, 
 M. Cossi, N. Rega, J. M. Millam, M. Klene, J. E. Knox, J. B. Cross, 
 V. Bakken, C. Adamo, J. Jaramillo, R. Gomperts, R. E. Stratmann, 
 O. Yazyev, A. J. Austin, R. Cammi, C. Pomelli, J. W. Ochterski, 
 R. L. Martin, K. Morokuma, V. G. Zakrzewski, G. A. Voth, 
 P. Salvador, J. J. Dannenberg, S. Dapprich, A. D. Daniels, 
 O. Farkas, J. B. Foresman, J. V. Ortiz, J. Cioslowski, 
 and D. J. Fox, Gaussian, Inc., Wallingford CT, 2013.
 
 ******************************************
 Gaussian 09:  IA32W-G09RevD.01 24-Apr-2013
                30-Mar-2026 
 ******************************************
 %chk=C:\Users\emman\Escritorio\quimica-enlaces\molecula\203.chk
 --------------
 # wb97xd/3-21g
 --------------
 1/38=1/1;
 2/12=2,17=6,18=5,40=1/2;
 3/5=5,11=2,16=1,25=1,30=1,74=-58/1,2,3;
 4//1;
 5/5=2,38=5/2;
 6/7=2,8=2,9=2,10=2,28=1/1;
 99/5=1,9=1/99;
 -----------------------------------------------
 Title Card Required - Distancia 1.200A - Paso 1
 -----------------------------------------------
 Symbolic Z-matrix:
 Charge =  0 Multiplicity = 1
 O                     0.12492  -0.08004   0. 
 O                    -2.00598  -0.37042   0. 
 O                    -0.93335   0.39891   0. 
 O                     0.30599  -1.2663    0. 
 O                    -1.8249   -1.55668   0. 
 O                    -0.75227  -0.78735   0. 
 
                          Input orientation:                          
 ---------------------------------------------------------------------
 Center     Atomic      Atomic             Coordinates (Angstroms)
 Number     Number       Type             X           Y           Z
 ---------------------------------------------------------------------
      1          8           0        0.124917   -0.080042    0.000000
      2          8           0       -2.005976   -0.370420    0.000000
      3          8           0       -0.933346    0.398908    0.000000
      4          8           0        0.305990   -1.266302    0.000000
      5          8           0       -1.824903   -1.556680    0.000000
      6          8           0       -0.752273   -0.787352    0.000000
 ---------------------------------------------------------------------
                    Distance matrix (angstroms):
                    1          2          3          4          5
     1  O    0.000000
     2  O    2.150587   0.000000
     3  O    1.161600   1.320000   0.000000
     4  O    1.200000   2.479474   2.075784   0.000000
     5  O    2.445866   1.200000   2.149232   2.150587   0.000000
     6  O    1.126832   1.321213   1.200000   1.161600   1.320000
                    6
     6  O    0.000000
 Stoichiometry    O6
 Framework group  CS[SG(O6)]
 Deg. of freedom     9
 Full point group                 CS      NOp   2
 Largest Abelian subgroup         CS      NOp   2
 Largest concise Abelian subgroup C1      NOp   1
                         Standard orientation:                         
 ---------------------------------------------------------------------
 Center     Atomic      Atomic             Coordinates (Angstroms)
 Number     Number       Type             X           Y           Z
 ---------------------------------------------------------------------
      1          8           0       -1.041396    0.377454    0.000000
      2          8           0        1.108915    0.411940    0.000000
      3          8           0       -0.067520    1.010606    0.000000
      4          8           0       -1.041396   -0.822546    0.000000
      5          8           0        1.108915   -0.788060    0.000000
      6          8           0       -0.067520   -0.189394    0.000000
 ---------------------------------------------------------------------
 Rotational constants (GHZ):     11.8473774      6.8131220      4.3255878
 Standard basis: 3-21G (6D, 7F)
 There are    42 symmetry adapted cartesian basis functions of A'  symmetry.
 There are    12 symmetry adapted cartesian basis functions of A"  symmetry.
 There are    42 symmetry adapted basis functions of A'  symmetry.
 There are    12 symmetry adapted basis functions of A"  symmetry.
    54 basis functions,    90 primitive gaussians,    54 cartesian basis functions
    24 alpha electrons       24 beta electrons
       nuclear repulsion energy       341.0579974564 Hartrees.
 NAtoms=    6 NActive=    6 NUniq=    6 SFac= 1.00D+00 NAtFMM=   60 NAOKFM=F Big=F
 Integral buffers will be    262144 words long.
 Raffenetti 2 integral format.
 Two-electron integral symmetry is turned on.
 Nuclear repulsion after empirical dispersion term =      341.0577349898 Hartrees.
 One-electron integrals computed using PRISM.
 NBasis=    54 RedAO= T EigKep=  1.93D-02  NBF=    42    12
 NBsUse=    54 1.00D-06 EigRej= -1.00D+00 NBFU=    42    12
 ExpMin= 3.74D-01 ExpMax= 3.22D+02 ExpMxC= 3.22D+02 IAcc=1 IRadAn=         1 AccDes= 0.00D+00
 Harris functional with IExCor= 4639 and IRadAn=       1 diagonalized for initial guess.
 HarFok:  IExCor= 4639 AccDes= 0.00D+00 IRadAn=         1 IDoV= 1 UseB2=F ITyADJ=14
 ICtDFT=  3500011 ScaDFX=  1.000000  1.000000  1.000000  1.000000
 FoFCou: FMM=F IPFlag=           0 FMFlag=      100000 FMFlg1=           0
         NFxFlg=           0 DoJE=T BraDBF=F KetDBF=T FulRan=T
         wScrn=  0.000000 ICntrl=     500 IOpCl=  0 I1Cent=   200000004 NGrid=           0
         NMat0=    1 NMatS0=      1 NMatT0=    0 NMatD0=    1 NMtDS0=    0 NMtDT0=    0
 Petite list used in FoFCou.
 Initial guess orbital symmetries:
       Occupied  (A') (A') (A') (A') (A') (A') (A') (A') (A') (A')
                 (A') (A") (A') (A') (A') (A') (A") (A') (A") (A')
                 (A") (A") (A") (A')
       Virtual   (A') (A') (A') (A') (A') (A') (A') (A') (A') (A")
                 (A') (A") (A") (A') (A') (A") (A") (A") (A') (A')
                 (A') (A') (A') (A') (A') (A') (A') (A') (A') (A')
 The electronic state of the initial guess is 1-A'.
 Keep R1 ints in memory in symmetry-blocked form, NReq=3454430.
 Requested convergence on RMS density matrix=1.00D-08 within 128 cycles.
 Requested convergence on MAX density matrix=1.00D-06.
 Requested convergence on             energy=1.00D-06.
 No special actions if energy rises.
 Integral accuracy reduced to 1.0D-05 until final iterations.
 Initial convergence to 1.0D-05 achieved.  Increase integral accuracy.
 SCF Done:  E(RwB97XD) =  -446.204841457     A.U. after   28 cycles
            NFock= 28  Conv=0.18D-08     -V/T= 1.9808

 **********************************************************************

            Population analysis using the SCF density.

 **********************************************************************

 Orbital symmetries:
       Occupied  (A') (A') (A') (A') (A') (A') (A') (A') (A') (A')
                 (A') (A") (A') (A') (A') (A') (A") (A") (A') (A")
                 (A') (A") (A") (A')
       Virtual   (A') (A') (A') (A') (A') (A') (A') (A') (A") (A')
                 (A') (A") (A") (A') (A') (A") (A") (A') (A") (A')
                 (A') (A') (A') (A') (A') (A') (A') (A') (A') (A')
 The electronic state is 1-A'.
 Alpha  occ. eigenvalues --  -19.44652 -19.44518 -19.36148 -19.35993 -19.22691
 Alpha  occ. eigenvalues --  -19.20633  -2.10684  -1.68923  -1.53884  -1.14136
 Alpha  occ. eigenvalues --   -1.08869  -1.00292  -0.98220  -0.85955  -0.74535
 Alpha  occ. eigenvalues --   -0.71170  -0.64669  -0.61015  -0.55065  -0.42526
 Alpha  occ. eigenvalues --   -0.40264  -0.38902  -0.27527  -0.27067
 Alpha virt. eigenvalues --    0.00869   0.06791   0.18578   0.31286   0.41585
 Alpha virt. eigenvalues --    0.48027   1.22391   1.24460   1.31815   1.35076
 Alpha virt. eigenvalues --    1.36551   1.36935   1.39907   1.46307   1.49216
 Alpha virt. eigenvalues --    1.55673   1.57663   1.66025   1.66898   1.77000
 Alpha virt. eigenvalues --    1.82414   1.86193   1.97973   2.48127   2.68186
 Alpha virt. eigenvalues --    2.94666   3.00959   3.08968   3.13311   3.60644
          Condensed to atoms (all electrons):
               1          2          3          4          5          6
     1  O   10.019856   0.177246  -0.441003  -0.113120   0.090226  -1.797481
     2  O    0.177246   9.403952  -0.189558   0.058158   0.086032  -1.435941
     3  O   -0.441003  -0.189558   8.725511   0.011551  -0.042328  -0.261579
     4  O   -0.113120   0.058158   0.011551   8.587416  -0.012468  -0.641411
     5  O    0.090226   0.086032  -0.042328  -0.012468   8.545715  -0.627658
     6  O   -1.797481  -1.435941  -0.261579  -0.641411  -0.627658  12.996216
 Mulliken charges:
               1
     1  O    0.064276
     2  O   -0.099889
     3  O    0.197406
     4  O    0.109873
     5  O   -0.039520
     6  O   -0.232146
 Sum of Mulliken charges =   0.00000
 Mulliken charges with hydrogens summed into heavy atoms:
               1
     1  O    0.064276
     2  O   -0.099889
     3  O    0.197406
     4  O    0.109873
     5  O   -0.039520
     6  O   -0.232146
 Electronic spatial extent (au):  <R**2>=            278.6434
 Charge=              0.0000 electrons
 Dipole moment (field-independent basis, Debye):
    X=             -1.9899    Y=              0.0179    Z=              0.0000  Tot=              1.9900
 Quadrupole moment (field-independent basis, Debye-Ang):
   XX=            -33.8544   YY=            -30.2527   ZZ=            -29.9979
   XY=             -0.0757   XZ=              0.0000   YZ=              0.0000
 Traceless Quadrupole moment (field-independent basis, Debye-Ang):
   XX=             -2.4861   YY=              1.1156   ZZ=              1.3705
   XY=             -0.0757   XZ=              0.0000   YZ=              0.0000
 Octapole moment (field-independent basis, Debye-Ang**2):
  XXX=             -3.3307  YYY=              0.0988  ZZZ=              0.0000  XYY=             -1.5716
  XXY=             -1.3164  XXZ=              0.0000  XZZ=             -0.7436  YZZ=              0.2232
  YYZ=              0.0000  XYZ=              0.0000
 Hexadecapole moment (field-independent basis, Debye-Ang**3):
 XXXX=           -160.3493 YYYY=            -90.2413 ZZZZ=            -17.4365 XXXY=             -0.5369
 XXXZ=              0.0000 YYYX=              0.4140 YYYZ=              0.0000 ZZZX=              0.0000
 ZZZY=              0.0000 XXYY=            -43.6861 XXZZ=            -30.3909 YYZZ=            -19.7953
 XXYZ=              0.0000 YYXZ=              0.0000 ZZXY=              0.0087
 N-N= 3.410577349898D+02 E-N=-1.741204412004D+03  KE= 4.549233890619D+02
 Symmetry A'   KE= 4.217940646508D+02
 Symmetry A"   KE= 3.312932441110D+01
 1|1|UNPC-INANI_LAP|SP|RwB97XD|3-21G|O6|EMMAN|30-Mar-2026|0||# wb97xd/3
 -21g||Title Card Required - Distancia 1.200A - Paso 1||0,1|O,0,0.12491
 732,-0.08004175,0.|O,0,-2.00597617,-0.37041996,0.|O,0,-0.93334631,0.39
 890778,0.|O,0,0.30599035,-1.26630166,0.|O,0,-1.82490313,-1.55667987,0.
 |O,0,-0.75227327,-0.78735212,0.||Version=IA32W-G09RevD.01|State=1-A'|H
 F=-446.2048415|RMSD=1.790e-009|Dipole=0.7728544,0.1250774,0.|Quadrupol
 e=-1.8041862,0.7852605,1.0189257,-0.3456838,0.,0.|PG=CS [SG(O6)]||@


 A BIRD IN THE HAND IS SAFER THAN ONE OVERHEAD.

                       -- NEWTON'S SEVENTH LAW
 Job cpu time:       0 days  0 hours  0 minutes  4.0 seconds.
 File lengths (MBytes):  RWF=      5 Int=      0 D2E=      0 Chk=      1 Scr=      1
 Normal termination of Gaussian 09 at Mon Mar 30 22:23:13 2026.
