 Entering Link 1 = C:\G09W\l1.exe PID=     12632.
  
 Copyright (c) 1988,1990,1992,1993,1995,1998,2003,2009,2013,
            Gaussian, Inc.  All Rights Reserved.
  
 This is part of the Gaussian(R) 09 program.  It is based on
 the Gaussian(R) 03 system (copyright 2003, Gaussian, Inc.),
 the Gaussian(R) 98 system (copyright 1998, Gaussian, Inc.),
 the Gaussian(R) 94 system (copyright 1995, Gaussian, Inc.),
 the Gaussian 92(TM) system (copyright 1992, Gaussian, Inc.),
 the Gaussian 90(TM) system (copyright 1990, Gaussian, Inc.),
 the Gaussian 88(TM) system (copyright 1988, Gaussian, Inc.),
 the Gaussian 86(TM) system (copyright 1986, Carnegie Mellon
 University), and the Gaussian 82(TM) system (copyright 1983,
 Carnegie Mellon University). Gaussian is a federally registered
 trademark of Gaussian, Inc.
  
 This software contains proprietary and confidential information,
 including trade secrets, belonging to Gaussian, Inc.
  
 This software is provided under written license and may be
 used, copied, transmitted, or stored only in accord with that
 written license.
  
 The following legend is applicable only to US Government
 contracts under FAR:
  
                    RESTRICTED RIGHTS LEGEND
  
 Use, reproduction and disclosure by the US Government is
 subject to restrictions as set forth in subparagraphs (a)
 and (c) of the Commercial Computer Software - Restricted
 Rights clause in FAR 52.227-19.
  
 Gaussian, Inc.
 340 Quinnipiac St., Bldg. 40, Wallingford CT 06492
  
  
 ---------------------------------------------------------------
 Warning -- This program may not be used in any manner that
 competes with the business of Gaussian, Inc. or will provide
 assistance to any competitor of Gaussian, Inc.  The licensee
 of this program is prohibited from giving any competitor of
 Gaussian, Inc. access to this program.  By using this program,
 the user acknowledges that Gaussian, Inc. is engaged in the
 business of creating and licensing software in the field of
 computational chemistry and represents and warrants to the
 licensee that it is not a competitor of Gaussian, Inc. and that
 it will not use this program in any manner prohibited above.
 ---------------------------------------------------------------
  

 Cite this work as:
 Gaussian 09, Revision D.01,
 M. J. Frisch, G. W. Trucks, H. B. Schlegel, G. E. Scuseria, 
 M. A. Robb, J. R. Cheeseman, G. Scalmani, V. Barone, B. Mennucci, 
 G. A. Petersson, H. Nakatsuji, M. Caricato, X. Li, H. P. Hratchian, 
 A. F. Izmaylov, J. Bloino, G. Zheng, J. L. Sonnenberg, M. Hada, 
 M. Ehara, K. Toyota, R. Fukuda, J. Hasegawa, M. Ishida, T. Nakajima, 
 Y. Honda, O. Kitao, H. Nakai, T. Vreven, J. A. Montgomery, Jr., 
 J. E. Peralta, F. Ogliaro, M. Bearpark, J. J. Heyd, E. Brothers, 
 K. N. Kudin, V. N. Staroverov, T. Keith, R. Kobayashi, J. Normand, 
 K. Raghavachari, A. Rendell, J. C. Burant, S. S. Iyengar, J. Tomasi, 
 M. Cossi, N. Rega, J. M. Millam, M. Klene, J. E. Knox, J. B. Cross, 
 V. Bakken, C. Adamo, J. Jaramillo, R. Gomperts, R. E. Stratmann, 
 O. Yazyev, A. J. Austin, R. Cammi, C. Pomelli, J. W. Ochterski, 
 R. L. Martin, K. Morokuma, V. G. Zakrzewski, G. A. Voth, 
 P. Salvador, J. J. Dannenberg, S. Dapprich, A. D. Daniels, 
 O. Farkas, J. B. Foresman, J. V. Ortiz, J. Cioslowski, 
 and D. J. Fox, Gaussian, Inc., Wallingford CT, 2013.
 
 ******************************************
 Gaussian 09:  IA32W-G09RevD.01 24-Apr-2013
                30-Mar-2026 
 ******************************************
 %chk=C:\Users\emman\Escritorio\quimica-enlaces\molecula\203.chk
 --------------
 # wb97xd/3-21g
 --------------
 1/38=1/1;
 2/12=2,17=6,18=5,40=1/2;
 3/5=5,11=2,16=1,25=1,30=1,74=-58/1,2,3;
 4//1;
 5/5=2,38=5/2;
 6/7=2,8=2,9=2,10=2,28=1/1;
 99/5=1,9=1/99;
 ------------------------------------------------
 Title Card Required - Distancia 4.200A - Paso 16
 ------------------------------------------------
 Symbolic Z-matrix:
 Charge =  0 Multiplicity = 1
 O                     0.12492  -0.08004   0. 
 O                    -2.00598  -0.37042   0. 
 O                    -0.93335   0.39891   0. 
 O                     0.75867  -4.23195   0. 
 O                    -1.37222  -4.52233   0. 
 O                    -0.29959  -3.753     0. 
 
                          Input orientation:                          
 ---------------------------------------------------------------------
 Center     Atomic      Atomic             Coordinates (Angstroms)
 Number     Number       Type             X           Y           Z
 ---------------------------------------------------------------------
      1          8           0        0.124917   -0.080042    0.000000
      2          8           0       -2.005976   -0.370420    0.000000
      3          8           0       -0.933346    0.398908    0.000000
      4          8           0        0.758673   -4.231951    0.000000
      5          8           0       -1.372221   -4.522330    0.000000
      6          8           0       -0.299591   -3.753002    0.000000
 ---------------------------------------------------------------------
                    Distance matrix (angstroms):
                    1          2          3          4          5
     1  O    0.000000
     2  O    2.150587   0.000000
     3  O    1.161600   1.320000   0.000000
     4  O    4.200000   4.749180   4.930293   0.000000
     5  O    4.687787   4.200000   4.940768   2.150587   0.000000
     6  O    3.697410   3.788616   4.200000   1.161600   1.320000
                    6
     6  O    0.000000
 Stoichiometry    O6
 Framework group  CS[SG(O6)]
 Deg. of freedom     9
 Full point group                 CS      NOp   2
 Largest Abelian subgroup         CS      NOp   2
 Largest concise Abelian subgroup C1      NOp   1
                         Standard orientation:                         
 ---------------------------------------------------------------------
 Center     Atomic      Atomic             Coordinates (Angstroms)
 Number     Number       Type             X           Y           Z
 ---------------------------------------------------------------------
      1          8           0        1.041396    1.877454    0.000000
      2          8           0       -1.108915    1.911940    0.000000
      3          8           0        0.067520    2.510606    0.000000
      4          8           0        1.041396   -2.322546    0.000000
      5          8           0       -1.108915   -2.288060    0.000000
      6          8           0        0.067520   -1.689394    0.000000
 ---------------------------------------------------------------------
 Rotational constants (GHZ):      6.8131880      1.1716635      0.9997385
 Standard basis: 3-21G (6D, 7F)
 There are    42 symmetry adapted cartesian basis functions of A'  symmetry.
 There are    12 symmetry adapted cartesian basis functions of A"  symmetry.
 There are    42 symmetry adapted basis functions of A'  symmetry.
 There are    12 symmetry adapted basis functions of A"  symmetry.
    54 basis functions,    90 primitive gaussians,    54 cartesian basis functions
    24 alpha electrons       24 beta electrons
       nuclear repulsion energy       211.4912277318 Hartrees.
 NAtoms=    6 NActive=    6 NUniq=    6 SFac= 1.00D+00 NAtFMM=   60 NAOKFM=F Big=F
 Integral buffers will be    262144 words long.
 Raffenetti 2 integral format.
 Two-electron integral symmetry is turned on.
 Nuclear repulsion after empirical dispersion term =      211.4907593378 Hartrees.
 One-electron integrals computed using PRISM.
 NBasis=    54 RedAO= T EigKep=  5.27D-02  NBF=    42    12
 NBsUse=    54 1.00D-06 EigRej= -1.00D+00 NBFU=    42    12
 ExpMin= 3.74D-01 ExpMax= 3.22D+02 ExpMxC= 3.22D+02 IAcc=1 IRadAn=         1 AccDes= 0.00D+00
 Harris functional with IExCor= 4639 and IRadAn=       1 diagonalized for initial guess.
 HarFok:  IExCor= 4639 AccDes= 0.00D+00 IRadAn=         1 IDoV= 1 UseB2=F ITyADJ=14
 ICtDFT=  3500011 ScaDFX=  1.000000  1.000000  1.000000  1.000000
 FoFCou: FMM=F IPFlag=           0 FMFlag=      100000 FMFlg1=           0
         NFxFlg=           0 DoJE=T BraDBF=F KetDBF=T FulRan=T
         wScrn=  0.000000 ICntrl=     500 IOpCl=  0 I1Cent=   200000004 NGrid=           0
         NMat0=    1 NMatS0=      1 NMatT0=    0 NMatD0=    1 NMtDS0=    0 NMtDT0=    0
 Petite list used in FoFCou.
 Initial guess orbital symmetries:
       Occupied  (A') (A') (A') (A') (A') (A') (A') (A') (A') (A')
                 (A') (A') (A') (A') (A') (A') (A") (A") (A") (A")
                 (A') (A') (A') (A')
       Virtual   (A") (A") (A') (A') (A') (A') (A') (A') (A") (A")
                 (A') (A') (A') (A') (A") (A") (A') (A') (A") (A")
                 (A') (A') (A') (A') (A') (A') (A') (A') (A') (A')
 The electronic state of the initial guess is 1-A'.
 Keep R1 ints in memory in symmetry-blocked form, NReq=3454430.
 Requested convergence on RMS density matrix=1.00D-08 within 128 cycles.
 Requested convergence on MAX density matrix=1.00D-06.
 Requested convergence on             energy=1.00D-06.
 No special actions if energy rises.
 Integral accuracy reduced to 1.0D-05 until final iterations.
 Initial convergence to 1.0D-05 achieved.  Increase integral accuracy.
 SCF Done:  E(RwB97XD) =  -448.080585811     A.U. after   20 cycles
            NFock= 20  Conv=0.49D-08     -V/T= 2.0048

 **********************************************************************

            Population analysis using the SCF density.

 **********************************************************************

 Orbital symmetries:
       Occupied  (A') (A') (A') (A') (A') (A') (A') (A') (A') (A')
                 (A') (A') (A") (A") (A') (A') (A') (A') (A") (A")
                 (A') (A') (A') (A')
       Virtual   (A") (A") (A') (A') (A') (A') (A") (A") (A') (A')
                 (A') (A') (A') (A') (A") (A") (A') (A') (A") (A")
                 (A') (A') (A') (A') (A') (A') (A') (A') (A') (A')
 The electronic state is 1-A'.
 Alpha  occ. eigenvalues --  -19.47006 -19.46500 -19.29701 -19.29200 -19.25361
 Alpha  occ. eigenvalues --  -19.24836  -1.55210  -1.54703  -1.21031  -1.20512
 Alpha  occ. eigenvalues --   -0.85172  -0.84652  -0.71924  -0.71417  -0.69491
 Alpha  occ. eigenvalues --   -0.68970  -0.66844  -0.66336  -0.42634  -0.42137
 Alpha  occ. eigenvalues --   -0.42011  -0.41498  -0.39485  -0.38955
 Alpha virt. eigenvalues --   -0.09108  -0.08605   0.15040   0.15538   0.35559
 Alpha virt. eigenvalues --    0.36081   1.32903   1.33409   1.35417   1.36255
 Alpha virt. eigenvalues --    1.39597   1.40302   1.45392   1.45871   1.48136
 Alpha virt. eigenvalues --    1.48634   1.52578   1.53152   1.58047   1.58546
 Alpha virt. eigenvalues --    1.62462   1.63318   1.81799   1.82385   2.28502
 Alpha virt. eigenvalues --    2.29012   2.69190   2.69709   3.00015   3.00552
          Condensed to atoms (all electrons):
               1          2          3          4          5          6
     1  O    8.153573  -0.071289  -0.048612   0.000000   0.000000   0.000008
     2  O   -0.071289   8.131395   0.053043   0.000000   0.000000   0.000005
     3  O   -0.048612   0.053043   7.848718   0.000000   0.000000   0.000000
     4  O    0.000000   0.000000   0.000000   8.152922  -0.071339  -0.048481
     5  O    0.000000   0.000000   0.000000  -0.071339   8.132779   0.053599
     6  O    0.000008   0.000005   0.000000  -0.048481   0.053599   7.846747
 Mulliken charges:
               1
     1  O   -0.033680
     2  O   -0.113154
     3  O    0.146852
     4  O   -0.033102
     5  O   -0.115038
     6  O    0.148122
 Sum of Mulliken charges =   0.00000
 Mulliken charges with hydrogens summed into heavy atoms:
               1
     1  O   -0.033680
     2  O   -0.113154
     3  O    0.146852
     4  O   -0.033102
     5  O   -0.115038
     6  O    0.148122
 Electronic spatial extent (au):  <R**2>=            972.1750
 Charge=              0.0000 electrons
 Dipole moment (field-independent basis, Debye):
    X=              0.9211    Y=              0.8923    Z=              0.0000  Tot=              1.2824
 Quadrupole moment (field-independent basis, Debye-Ang):
   XX=            -34.1769   YY=            -31.1524   ZZ=            -27.8565
   XY=              0.3523   XZ=              0.0000   YZ=              0.0000
 Traceless Quadrupole moment (field-independent basis, Debye-Ang):
   XX=             -3.1150   YY=             -0.0905   ZZ=              3.2054
   XY=              0.3523   XZ=              0.0000   YZ=              0.0000
 Octapole moment (field-independent basis, Debye-Ang**2):
  XXX=              0.5232  YYY=             12.3656  ZZZ=              0.0000  XYY=              4.4273
  XXY=              0.0168  XXZ=              0.0000  XZZ=              0.5575  YZZ=              0.1955
  YYZ=              0.0000  XYZ=              0.0000
 Hexadecapole moment (field-independent basis, Debye-Ang**3):
 XXXX=           -158.8867 YYYY=           -857.6283 ZZZZ=            -15.8463 XXXY=              0.9195
 XXXZ=              0.0000 YYYX=              4.6778 YYYZ=              0.0000 ZZZX=              0.0000
 ZZZY=              0.0000 XXYY=           -182.0437 XXZZ=            -27.7534 YYZZ=           -130.8388
 XXYZ=              0.0000 YYXZ=              0.0000 ZZXY=             -0.0447
 N-N= 2.114907593378D+02 E-N=-1.480766558557D+03  KE= 4.459246691962D+02
 Symmetry A'   KE= 4.268898683189D+02
 Symmetry A"   KE= 1.903480087733D+01
 1|1|UNPC-INANI_LAP|SP|RwB97XD|3-21G|O6|EMMAN|30-Mar-2026|0||# wb97xd/3
 -21g||Title Card Required - Distancia 4.200A - Paso 16||0,1|O,0,0.1249
 1732,-0.08004175,0.|O,0,-2.00597617,-0.37041996,0.|O,0,-0.93334631,0.3
 9890778,0.|O,0,0.75867294,-4.23195141,0.|O,0,-1.37222054,-4.52232962,0
 .|O,0,-0.29959068,-3.75300187,0.||Version=IA32W-G09RevD.01|State=1-A'|
 HF=-448.0805858|RMSD=4.905e-009|Dipole=0.3052614,0.4017028,0.|Quadrupo
 le=-2.3428232,-0.0403407,2.3831639,-0.0854468,0.,0.|PG=CS [SG(O6)]||@


 WE'RE IN THE POSITION OF A VISITOR FROM ANOTHER
 DIMENSION WHO COMES TO EARTH AND SEES A CHESS MATCH.
 ASSUMING HE KNOWS IT'S A GAME, HE'S GOT TWO PROBLEMS:
 FIRST, FIGURE OUT THE RULES, AND SECOND, FIGURE OUT HOW TO WIN.
 NINETY PERCENT OF SCIENCE (INCLUDING VIRTUALLY ALL OF CHEMISRY)
 IS IN THAT SECOND CATEGORY.  THEY'RE TRYING TO APPLY
 THE LAWS THAT ARE ALREADY KNOWN.

                     -- SHELDON GLASHOW, 1979
 Job cpu time:       0 days  0 hours  0 minutes  3.0 seconds.
 File lengths (MBytes):  RWF=      5 Int=      0 D2E=      0 Chk=      1 Scr=      1
 Normal termination of Gaussian 09 at Mon Mar 30 22:24:04 2026.
