 Entering Link 1 = C:\G09W\l1.exe PID=      5412.
  
 Copyright (c) 1988,1990,1992,1993,1995,1998,2003,2009,2013,
            Gaussian, Inc.  All Rights Reserved.
  
 This is part of the Gaussian(R) 09 program.  It is based on
 the Gaussian(R) 03 system (copyright 2003, Gaussian, Inc.),
 the Gaussian(R) 98 system (copyright 1998, Gaussian, Inc.),
 the Gaussian(R) 94 system (copyright 1995, Gaussian, Inc.),
 the Gaussian 92(TM) system (copyright 1992, Gaussian, Inc.),
 the Gaussian 90(TM) system (copyright 1990, Gaussian, Inc.),
 the Gaussian 88(TM) system (copyright 1988, Gaussian, Inc.),
 the Gaussian 86(TM) system (copyright 1986, Carnegie Mellon
 University), and the Gaussian 82(TM) system (copyright 1983,
 Carnegie Mellon University). Gaussian is a federally registered
 trademark of Gaussian, Inc.
  
 This software contains proprietary and confidential information,
 including trade secrets, belonging to Gaussian, Inc.
  
 This software is provided under written license and may be
 used, copied, transmitted, or stored only in accord with that
 written license.
  
 The following legend is applicable only to US Government
 contracts under FAR:
  
                    RESTRICTED RIGHTS LEGEND
  
 Use, reproduction and disclosure by the US Government is
 subject to restrictions as set forth in subparagraphs (a)
 and (c) of the Commercial Computer Software - Restricted
 Rights clause in FAR 52.227-19.
  
 Gaussian, Inc.
 340 Quinnipiac St., Bldg. 40, Wallingford CT 06492
  
  
 ---------------------------------------------------------------
 Warning -- This program may not be used in any manner that
 competes with the business of Gaussian, Inc. or will provide
 assistance to any competitor of Gaussian, Inc.  The licensee
 of this program is prohibited from giving any competitor of
 Gaussian, Inc. access to this program.  By using this program,
 the user acknowledges that Gaussian, Inc. is engaged in the
 business of creating and licensing software in the field of
 computational chemistry and represents and warrants to the
 licensee that it is not a competitor of Gaussian, Inc. and that
 it will not use this program in any manner prohibited above.
 ---------------------------------------------------------------
  

 Cite this work as:
 Gaussian 09, Revision D.01,
 M. J. Frisch, G. W. Trucks, H. B. Schlegel, G. E. Scuseria, 
 M. A. Robb, J. R. Cheeseman, G. Scalmani, V. Barone, B. Mennucci, 
 G. A. Petersson, H. Nakatsuji, M. Caricato, X. Li, H. P. Hratchian, 
 A. F. Izmaylov, J. Bloino, G. Zheng, J. L. Sonnenberg, M. Hada, 
 M. Ehara, K. Toyota, R. Fukuda, J. Hasegawa, M. Ishida, T. Nakajima, 
 Y. Honda, O. Kitao, H. Nakai, T. Vreven, J. A. Montgomery, Jr., 
 J. E. Peralta, F. Ogliaro, M. Bearpark, J. J. Heyd, E. Brothers, 
 K. N. Kudin, V. N. Staroverov, T. Keith, R. Kobayashi, J. Normand, 
 K. Raghavachari, A. Rendell, J. C. Burant, S. S. Iyengar, J. Tomasi, 
 M. Cossi, N. Rega, J. M. Millam, M. Klene, J. E. Knox, J. B. Cross, 
 V. Bakken, C. Adamo, J. Jaramillo, R. Gomperts, R. E. Stratmann, 
 O. Yazyev, A. J. Austin, R. Cammi, C. Pomelli, J. W. Ochterski, 
 R. L. Martin, K. Morokuma, V. G. Zakrzewski, G. A. Voth, 
 P. Salvador, J. J. Dannenberg, S. Dapprich, A. D. Daniels, 
 O. Farkas, J. B. Foresman, J. V. Ortiz, J. Cioslowski, 
 and D. J. Fox, Gaussian, Inc., Wallingford CT, 2013.
 
 ******************************************
 Gaussian 09:  IA32W-G09RevD.01 24-Apr-2013
                30-Mar-2026 
 ******************************************
 %chk=C:\Users\emman\Escritorio\quimica-enlaces\molecula\203.chk
 --------------
 # wb97xd/3-21g
 --------------
 1/38=1/1;
 2/12=2,17=6,18=5,40=1/2;
 3/5=5,11=2,16=1,25=1,30=1,74=-58/1,2,3;
 4//1;
 5/5=2,38=5/2;
 6/7=2,8=2,9=2,10=2,28=1/1;
 99/5=1,9=1/99;
 ------------------------------------------------
 Title Card Required - Distancia 5.800A - Paso 24
 ------------------------------------------------
 Symbolic Z-matrix:
 Charge =  0 Multiplicity = 1
 O                     0.12492  -0.08004   0. 
 O                    -2.00598  -0.37042   0. 
 O                    -0.93335   0.39891   0. 
 O                     1.0001   -5.81363   0. 
 O                    -1.13079  -6.10401   0. 
 O                    -0.05816  -5.33468   0. 
 
                          Input orientation:                          
 ---------------------------------------------------------------------
 Center     Atomic      Atomic             Coordinates (Angstroms)
 Number     Number       Type             X           Y           Z
 ---------------------------------------------------------------------
      1          8           0        0.124917   -0.080042    0.000000
      2          8           0       -2.005976   -0.370420    0.000000
      3          8           0       -0.933346    0.398908    0.000000
      4          8           0        1.000104   -5.813631    0.000000
      5          8           0       -1.130790   -6.104009    0.000000
      6          8           0       -0.058160   -5.334682    0.000000
 ---------------------------------------------------------------------
                    Distance matrix (angstroms):
                    1          2          3          4          5
     1  O    0.000000
     2  O    2.150587   0.000000
     3  O    1.161600   1.320000   0.000000
     4  O    5.800000   6.218124   6.506448   0.000000
     5  O    6.153453   5.800000   6.505914   2.150587   0.000000
     6  O    5.257828   5.332718   5.800000   1.161600   1.320000
                    6
     6  O    0.000000
 Stoichiometry    O6
 Framework group  CS[SG(O6)]
 Deg. of freedom     9
 Full point group                 CS      NOp   2
 Largest Abelian subgroup         CS      NOp   2
 Largest concise Abelian subgroup C1      NOp   1
                         Standard orientation:                         
 ---------------------------------------------------------------------
 Center     Atomic      Atomic             Coordinates (Angstroms)
 Number     Number       Type             X           Y           Z
 ---------------------------------------------------------------------
      1          8           0        1.041396    2.677454    0.000000
      2          8           0       -1.108915    2.711940    0.000000
      3          8           0        0.067520    3.310606    0.000000
      4          8           0        1.041396   -3.122546    0.000000
      5          8           0       -1.108915   -3.088060    0.000000
      6          8           0        0.067520   -2.489394    0.000000
 ---------------------------------------------------------------------
 Rotational constants (GHZ):      6.8131852      0.6199353      0.5682316
 Standard basis: 3-21G (6D, 7F)
 There are    42 symmetry adapted cartesian basis functions of A'  symmetry.
 There are    12 symmetry adapted cartesian basis functions of A"  symmetry.
 There are    42 symmetry adapted basis functions of A'  symmetry.
 There are    12 symmetry adapted basis functions of A"  symmetry.
    54 basis functions,    90 primitive gaussians,    54 cartesian basis functions
    24 alpha electrons       24 beta electrons
       nuclear repulsion energy       192.7925234757 Hartrees.
 NAtoms=    6 NActive=    6 NUniq=    6 SFac= 1.00D+00 NAtFMM=   60 NAOKFM=F Big=F
 Integral buffers will be    262144 words long.
 Raffenetti 2 integral format.
 Two-electron integral symmetry is turned on.
 Nuclear repulsion after empirical dispersion term =      192.7923946471 Hartrees.
 One-electron integrals computed using PRISM.
 NBasis=    54 RedAO= T EigKep=  5.28D-02  NBF=    42    12
 NBsUse=    54 1.00D-06 EigRej= -1.00D+00 NBFU=    42    12
 ExpMin= 3.74D-01 ExpMax= 3.22D+02 ExpMxC= 3.22D+02 IAcc=1 IRadAn=         1 AccDes= 0.00D+00
 Harris functional with IExCor= 4639 and IRadAn=       1 diagonalized for initial guess.
 HarFok:  IExCor= 4639 AccDes= 0.00D+00 IRadAn=         1 IDoV= 1 UseB2=F ITyADJ=14
 ICtDFT=  3500011 ScaDFX=  1.000000  1.000000  1.000000  1.000000
 FoFCou: FMM=F IPFlag=           0 FMFlag=      100000 FMFlg1=           0
         NFxFlg=           0 DoJE=T BraDBF=F KetDBF=T FulRan=T
         wScrn=  0.000000 ICntrl=     500 IOpCl=  0 I1Cent=   200000004 NGrid=           0
         NMat0=    1 NMatS0=      1 NMatT0=    0 NMatD0=    1 NMtDS0=    0 NMtDT0=    0
 Petite list used in FoFCou.
 Initial guess orbital symmetries:
       Occupied  (A') (A') (A') (A') (A') (A') (A') (A') (A') (A')
                 (A') (A') (A') (A') (A') (A') (A") (A") (A") (A")
                 (A') (A') (A') (A')
       Virtual   (A") (A") (A') (A') (A') (A') (A') (A') (A") (A")
                 (A') (A') (A') (A') (A") (A") (A') (A') (A") (A")
                 (A') (A') (A') (A') (A') (A') (A') (A') (A') (A')
 The electronic state of the initial guess is 1-A'.
 Keep R1 ints in memory in symmetry-blocked form, NReq=3454430.
 Requested convergence on RMS density matrix=1.00D-08 within 128 cycles.
 Requested convergence on MAX density matrix=1.00D-06.
 Requested convergence on             energy=1.00D-06.
 No special actions if energy rises.
 Integral accuracy reduced to 1.0D-05 until final iterations.
 Initial convergence to 1.0D-05 achieved.  Increase integral accuracy.
 SCF Done:  E(RwB97XD) =  -448.080257597     A.U. after   20 cycles
            NFock= 20  Conv=0.26D-08     -V/T= 2.0048

 **********************************************************************

            Population analysis using the SCF density.

 **********************************************************************

 Orbital symmetries:
       Occupied  (A') (A') (A') (A') (A') (A') (A') (A') (A') (A')
                 (A') (A') (A") (A") (A') (A') (A') (A') (A") (A")
                 (A') (A') (A') (A')
       Virtual   (A") (A") (A') (A') (A') (A') (A") (A") (A') (A')
                 (A') (A') (A') (A') (A") (A") (A') (A') (A") (A")
                 (A') (A') (A') (A') (A') (A') (A') (A') (A') (A')
 The electronic state is 1-A'.
 Alpha  occ. eigenvalues --  -19.46914 -19.46637 -19.29610 -19.29335 -19.25249
 Alpha  occ. eigenvalues --  -19.24966  -1.55110  -1.54833  -1.20931  -1.20651
 Alpha  occ. eigenvalues --   -0.85072  -0.84791  -0.71827  -0.71549  -0.69400
 Alpha  occ. eigenvalues --   -0.69120  -0.66743  -0.66465  -0.42534  -0.42260
 Alpha  occ. eigenvalues --   -0.41909  -0.41631  -0.39381  -0.39100
 Alpha virt. eigenvalues --   -0.09009  -0.08733   0.15133   0.15407   0.35659
 Alpha virt. eigenvalues --    0.35940   1.33002   1.33279   1.35688   1.35978
 Alpha virt. eigenvalues --    1.39778   1.40056   1.45467   1.45741   1.48242
 Alpha virt. eigenvalues --    1.48517   1.52710   1.52995   1.58143   1.58416
 Alpha virt. eigenvalues --    1.62705   1.62984   1.81915   1.82194   2.28601
 Alpha virt. eigenvalues --    2.28878   2.69298   2.69577   3.00128   3.00407
          Condensed to atoms (all electrons):
               1          2          3          4          5          6
     1  O    8.151984  -0.071322  -0.048466   0.000000   0.000000   0.000000
     2  O   -0.071322   8.132605   0.053178   0.000000   0.000000   0.000000
     3  O   -0.048466   0.053178   7.848630   0.000000   0.000000   0.000000
     4  O    0.000000   0.000000   0.000000   8.151784  -0.071339  -0.048438
     5  O    0.000000   0.000000   0.000000  -0.071339   8.133055   0.053357
     6  O    0.000000   0.000000   0.000000  -0.048438   0.053357   7.848000
 Mulliken charges:
               1
     1  O   -0.032196
     2  O   -0.114461
     3  O    0.146657
     4  O   -0.032007
     5  O   -0.115073
     6  O    0.147081
 Sum of Mulliken charges =   0.00000
 Mulliken charges with hydrogens summed into heavy atoms:
               1
     1  O   -0.032196
     2  O   -0.114461
     3  O    0.146657
     4  O   -0.032007
     5  O   -0.115073
     6  O    0.147081
 Electronic spatial extent (au):  <R**2>=           1657.8089
 Charge=              0.0000 electrons
 Dipole moment (field-independent basis, Debye):
    X=              0.9429    Y=              0.8855    Z=              0.0000  Tot=              1.2935
 Quadrupole moment (field-independent basis, Debye-Ang):
   XX=            -34.1742   YY=            -31.1414   ZZ=            -27.8562
   XY=              0.3623   XZ=              0.0000   YZ=              0.0000
 Traceless Quadrupole moment (field-independent basis, Debye-Ang):
   XX=             -3.1170   YY=             -0.0841   ZZ=              3.2011
   XY=              0.3623   XZ=              0.0000   YZ=              0.0000
 Octapole moment (field-independent basis, Debye-Ang**2):
  XXX=              0.5676  YYY=             22.9081  ZZZ=              0.0000  XYY=              8.2882
  XXY=             -0.0035  XXZ=              0.0000  XZZ=              0.5647  YZZ=              0.1934
  YYZ=              0.0000  XYZ=              0.0000
 Hexadecapole moment (field-independent basis, Debye-Ang**3):
 XXXX=           -158.8814 YYYY=          -1604.7804 ZZZZ=            -15.8458 XXXY=              0.9453
 XXXZ=              0.0000 YYYX=              9.1328 YYYZ=              0.0000 ZZZX=              0.0000
 ZZZY=              0.0000 XXYY=           -318.7111 XXZZ=            -27.7524 YYZZ=           -242.2594
 XXYZ=              0.0000 YYXZ=              0.0000 ZZXY=             -0.0418
 N-N= 1.927923946471D+02 E-N=-1.443360229005D+03  KE= 4.459243589116D+02
 Symmetry A'   KE= 4.268887011020D+02
 Symmetry A"   KE= 1.903565780961D+01
 1|1|UNPC-INANI_LAP|SP|RwB97XD|3-21G|O6|EMMAN|30-Mar-2026|0||# wb97xd/3
 -21g||Title Card Required - Distancia 5.800A - Paso 24||0,1|O,0,0.1249
 1732,-0.08004175,0.|O,0,-2.00597617,-0.37041996,0.|O,0,-0.93334631,0.3
 9890778,0.|O,0,1.00010366,-5.81363128,0.|O,0,-1.13078982,-6.10400949,0
 .|O,0,-0.05815996,-5.33468174,0.||Version=IA32W-G09RevD.01|State=1-A'|
 HF=-448.0802576|RMSD=2.638e-009|Dipole=0.3141471,0.4003884,0.|Quadrupo
 le=-2.3463881,-0.0335361,2.3799242,-0.0792841,0.,0.|PG=CS [SG(O6)]||@


 WE'RE IN THE POSITION OF A VISITOR FROM ANOTHER
 DIMENSION WHO COMES TO EARTH AND SEES A CHESS MATCH.
 ASSUMING HE KNOWS IT'S A GAME, HE'S GOT TWO PROBLEMS:
 FIRST, FIGURE OUT THE RULES, AND SECOND, FIGURE OUT HOW TO WIN.
 NINETY PERCENT OF SCIENCE (INCLUDING VIRTUALLY ALL OF CHEMISRY)
 IS IN THAT SECOND CATEGORY.  THEY'RE TRYING TO APPLY
 THE LAWS THAT ARE ALREADY KNOWN.

                     -- SHELDON GLASHOW, 1979
 Job cpu time:       0 days  0 hours  0 minutes  3.0 seconds.
 File lengths (MBytes):  RWF=      5 Int=      0 D2E=      0 Chk=      1 Scr=      1
 Normal termination of Gaussian 09 at Mon Mar 30 22:24:25 2026.
