 Entering Link 1 = C:\G09W\l1.exe PID=      9448.
  
 Copyright (c) 1988,1990,1992,1993,1995,1998,2003,2009,2013,
            Gaussian, Inc.  All Rights Reserved.
  
 This is part of the Gaussian(R) 09 program.  It is based on
 the Gaussian(R) 03 system (copyright 2003, Gaussian, Inc.),
 the Gaussian(R) 98 system (copyright 1998, Gaussian, Inc.),
 the Gaussian(R) 94 system (copyright 1995, Gaussian, Inc.),
 the Gaussian 92(TM) system (copyright 1992, Gaussian, Inc.),
 the Gaussian 90(TM) system (copyright 1990, Gaussian, Inc.),
 the Gaussian 88(TM) system (copyright 1988, Gaussian, Inc.),
 the Gaussian 86(TM) system (copyright 1986, Carnegie Mellon
 University), and the Gaussian 82(TM) system (copyright 1983,
 Carnegie Mellon University). Gaussian is a federally registered
 trademark of Gaussian, Inc.
  
 This software contains proprietary and confidential information,
 including trade secrets, belonging to Gaussian, Inc.
  
 This software is provided under written license and may be
 used, copied, transmitted, or stored only in accord with that
 written license.
  
 The following legend is applicable only to US Government
 contracts under FAR:
  
                    RESTRICTED RIGHTS LEGEND
  
 Use, reproduction and disclosure by the US Government is
 subject to restrictions as set forth in subparagraphs (a)
 and (c) of the Commercial Computer Software - Restricted
 Rights clause in FAR 52.227-19.
  
 Gaussian, Inc.
 340 Quinnipiac St., Bldg. 40, Wallingford CT 06492
  
  
 ---------------------------------------------------------------
 Warning -- This program may not be used in any manner that
 competes with the business of Gaussian, Inc. or will provide
 assistance to any competitor of Gaussian, Inc.  The licensee
 of this program is prohibited from giving any competitor of
 Gaussian, Inc. access to this program.  By using this program,
 the user acknowledges that Gaussian, Inc. is engaged in the
 business of creating and licensing software in the field of
 computational chemistry and represents and warrants to the
 licensee that it is not a competitor of Gaussian, Inc. and that
 it will not use this program in any manner prohibited above.
 ---------------------------------------------------------------
  

 Cite this work as:
 Gaussian 09, Revision D.01,
 M. J. Frisch, G. W. Trucks, H. B. Schlegel, G. E. Scuseria, 
 M. A. Robb, J. R. Cheeseman, G. Scalmani, V. Barone, B. Mennucci, 
 G. A. Petersson, H. Nakatsuji, M. Caricato, X. Li, H. P. Hratchian, 
 A. F. Izmaylov, J. Bloino, G. Zheng, J. L. Sonnenberg, M. Hada, 
 M. Ehara, K. Toyota, R. Fukuda, J. Hasegawa, M. Ishida, T. Nakajima, 
 Y. Honda, O. Kitao, H. Nakai, T. Vreven, J. A. Montgomery, Jr., 
 J. E. Peralta, F. Ogliaro, M. Bearpark, J. J. Heyd, E. Brothers, 
 K. N. Kudin, V. N. Staroverov, T. Keith, R. Kobayashi, J. Normand, 
 K. Raghavachari, A. Rendell, J. C. Burant, S. S. Iyengar, J. Tomasi, 
 M. Cossi, N. Rega, J. M. Millam, M. Klene, J. E. Knox, J. B. Cross, 
 V. Bakken, C. Adamo, J. Jaramillo, R. Gomperts, R. E. Stratmann, 
 O. Yazyev, A. J. Austin, R. Cammi, C. Pomelli, J. W. Ochterski, 
 R. L. Martin, K. Morokuma, V. G. Zakrzewski, G. A. Voth, 
 P. Salvador, J. J. Dannenberg, S. Dapprich, A. D. Daniels, 
 O. Farkas, J. B. Foresman, J. V. Ortiz, J. Cioslowski, 
 and D. J. Fox, Gaussian, Inc., Wallingford CT, 2013.
 
 ******************************************
 Gaussian 09:  IA32W-G09RevD.01 24-Apr-2013
                30-Mar-2026 
 ******************************************
 %chk=C:\Users\emman\Escritorio\quimica-enlaces\molecula\203.chk
 --------------
 # wb97xd/3-21g
 --------------
 1/38=1/1;
 2/12=2,17=6,18=5,40=1/2;
 3/5=5,11=2,16=1,25=1,30=1,74=-58/1,2,3;
 4//1;
 5/5=2,38=5/2;
 6/7=2,8=2,9=2,10=2,28=1/1;
 99/5=1,9=1/99;
 -----------------------------------------------
 Title Card Required - Distancia 1.000A - Paso 0
 -----------------------------------------------
 Symbolic Z-matrix:
 Charge =  0 Multiplicity = 1
 O                     0.12492  -0.08004   0. 
 O                    -2.00598  -0.37042   0. 
 O                    -0.93335   0.39891   0. 
 O                     0.27581  -1.06859   0. 
 O                    -1.85508  -1.35897   0. 
 O                    -0.78245  -0.58964   0. 
 
                          Input orientation:                          
 ---------------------------------------------------------------------
 Center     Atomic      Atomic             Coordinates (Angstroms)
 Number     Number       Type             X           Y           Z
 ---------------------------------------------------------------------
      1          8           0        0.124917   -0.080042    0.000000
      2          8           0       -2.005976   -0.370420    0.000000
      3          8           0       -0.933346    0.398908    0.000000
      4          8           0        0.275812   -1.068592    0.000000
      5          8           0       -1.855082   -1.358970    0.000000
      6          8           0       -0.782452   -0.589642    0.000000
 ---------------------------------------------------------------------
                    Distance matrix (angstroms):
                    1          2          3          4          5
     1  O    0.000000
     2  O    2.150587   0.000000
     3  O    1.161600   1.320000   0.000000
     4  O    1.000000   2.386210   1.901478   0.000000
     5  O    2.357128   1.000000   1.984875   2.150587   0.000000
     6  O    1.040679   1.243008   1.000000   1.161600   1.320000
                    6
     6  O    0.000000
 Stoichiometry    O6
 Framework group  CS[SG(O6)]
 Deg. of freedom     9
 Full point group                 CS      NOp   2
 Largest Abelian subgroup         CS      NOp   2
 Largest concise Abelian subgroup C1      NOp   1
                         Standard orientation:                         
 ---------------------------------------------------------------------
 Center     Atomic      Atomic             Coordinates (Angstroms)
 Number     Number       Type             X           Y           Z
 ---------------------------------------------------------------------
      1          8           0       -1.041396    0.277454    0.000000
      2          8           0        1.108915    0.311940    0.000000
      3          8           0       -0.067520    0.910606    0.000000
      4          8           0       -1.041396   -0.722546    0.000000
      5          8           0        1.108915   -0.688060    0.000000
      6          8           0       -0.067520   -0.089394    0.000000
 ---------------------------------------------------------------------
 Rotational constants (GHZ):     15.7434137      6.8131372      4.7552500
 Standard basis: 3-21G (6D, 7F)
 There are    42 symmetry adapted cartesian basis functions of A'  symmetry.
 There are    12 symmetry adapted cartesian basis functions of A"  symmetry.
 There are    42 symmetry adapted basis functions of A'  symmetry.
 There are    12 symmetry adapted basis functions of A"  symmetry.
    54 basis functions,    90 primitive gaussians,    54 cartesian basis functions
    24 alpha electrons       24 beta electrons
       nuclear repulsion energy       365.9481654788 Hartrees.
 NAtoms=    6 NActive=    6 NUniq=    6 SFac= 1.00D+00 NAtFMM=   60 NAOKFM=F Big=F
 Integral buffers will be    262144 words long.
 Raffenetti 2 integral format.
 Two-electron integral symmetry is turned on.
 Nuclear repulsion after empirical dispersion term =      365.9479524102 Hartrees.
 One-electron integrals computed using PRISM.
 NBasis=    54 RedAO= T EigKep=  1.08D-02  NBF=    42    12
 NBsUse=    54 1.00D-06 EigRej= -1.00D+00 NBFU=    42    12
 ExpMin= 3.74D-01 ExpMax= 3.22D+02 ExpMxC= 3.22D+02 IAcc=1 IRadAn=         1 AccDes= 0.00D+00
 Harris functional with IExCor= 4639 and IRadAn=       1 diagonalized for initial guess.
 HarFok:  IExCor= 4639 AccDes= 0.00D+00 IRadAn=         1 IDoV= 1 UseB2=F ITyADJ=14
 ICtDFT=  3500011 ScaDFX=  1.000000  1.000000  1.000000  1.000000
 FoFCou: FMM=F IPFlag=           0 FMFlag=      100000 FMFlg1=           0
         NFxFlg=           0 DoJE=T BraDBF=F KetDBF=T FulRan=T
         wScrn=  0.000000 ICntrl=     500 IOpCl=  0 I1Cent=   200000004 NGrid=           0
         NMat0=    1 NMatS0=      1 NMatT0=    0 NMatD0=    1 NMtDS0=    0 NMtDT0=    0
 Petite list used in FoFCou.
 Initial guess orbital symmetries:
       Occupied  (A') (A') (A') (A') (A') (A') (A') (A') (A') (A')
                 (A') (A") (A') (A') (A") (A') (A') (A') (A") (A')
                 (A") (A") (A') (A")
       Virtual   (A') (A') (A') (A') (A') (A') (A') (A') (A") (A')
                 (A') (A") (A") (A') (A') (A') (A") (A") (A") (A')
                 (A') (A') (A') (A') (A') (A') (A') (A') (A') (A')
 The electronic state of the initial guess is 1-A'.
 Keep R1 ints in memory in symmetry-blocked form, NReq=3454430.
 Requested convergence on RMS density matrix=1.00D-08 within 128 cycles.
 Requested convergence on MAX density matrix=1.00D-06.
 Requested convergence on             energy=1.00D-06.
 No special actions if energy rises.
 Integral accuracy reduced to 1.0D-05 until final iterations.
 Initial convergence to 1.0D-05 achieved.  Increase integral accuracy.
 SCF Done:  E(RwB97XD) =  -445.187825520     A.U. after   19 cycles
            NFock= 19  Conv=0.99D-08     -V/T= 1.9692

 **********************************************************************

            Population analysis using the SCF density.

 **********************************************************************

 Orbital symmetries:
       Occupied  (A') (A') (A') (A') (A') (A') (A') (A') (A') (A')
                 (A') (A") (A') (A') (A") (A') (A') (A") (A') (A")
                 (A') (A") (A') (A")
       Virtual   (A') (A') (A') (A') (A') (A') (A') (A') (A") (A')
                 (A") (A') (A") (A') (A') (A') (A") (A") (A") (A')
                 (A') (A') (A') (A') (A') (A') (A') (A') (A') (A')
 The electronic state is 1-A'.
 Alpha  occ. eigenvalues --  -19.53100 -19.39864 -19.36126 -19.32681 -19.23568
 Alpha  occ. eigenvalues --  -19.17551  -2.34631  -1.91277  -1.69773  -1.23992
 Alpha  occ. eigenvalues --   -1.17372  -1.13824  -0.94357  -0.88349  -0.74920
 Alpha  occ. eigenvalues --   -0.74066  -0.69292  -0.60756  -0.55336  -0.46177
 Alpha  occ. eigenvalues --   -0.37878  -0.31658  -0.29846  -0.20503
 Alpha virt. eigenvalues --    0.10061   0.10363   0.42803   0.45691   0.68688
 Alpha virt. eigenvalues --    0.72968   1.21573   1.27546   1.27702   1.35619
 Alpha virt. eigenvalues --    1.35866   1.37733   1.39874   1.43105   1.47938
 Alpha virt. eigenvalues --    1.53241   1.54388   1.55591   1.67183   1.73468
 Alpha virt. eigenvalues --    1.81528   1.86970   1.91310   2.40880   2.55031
 Alpha virt. eigenvalues --    2.98781   3.08748   3.15898   3.20715   3.68059
          Condensed to atoms (all electrons):
               1          2          3          4          5          6
     1  O   11.030356   0.231987  -0.862369  -0.799008   0.099390  -1.801009
     2  O    0.231987  10.080873  -0.442001   0.042206  -0.322919  -1.429569
     3  O   -0.862369  -0.442001   9.686986   0.046392  -0.083851  -0.489692
     4  O   -0.799008   0.042206   0.046392   9.108856  -0.063028  -0.345526
     5  O    0.099390  -0.322919  -0.083851  -0.063028   8.816150  -0.484971
     6  O   -1.801009  -1.429569  -0.489692  -0.345526  -0.484971  12.684716
 Mulliken charges:
               1
     1  O    0.100653
     2  O   -0.160576
     3  O    0.144536
     4  O    0.010108
     5  O    0.039229
     6  O   -0.133950
 Sum of Mulliken charges =   0.00000
 Mulliken charges with hydrogens summed into heavy atoms:
               1
     1  O    0.100653
     2  O   -0.160576
     3  O    0.144536
     4  O    0.010108
     5  O    0.039229
     6  O   -0.133950
 Electronic spatial extent (au):  <R**2>=            258.5441
 Charge=              0.0000 electrons
 Dipole moment (field-independent basis, Debye):
    X=             -1.8466    Y=              0.1603    Z=              0.0000  Tot=              1.8535
 Quadrupole moment (field-independent basis, Debye-Ang):
   XX=            -32.0818   YY=            -31.4808   ZZ=            -28.8692
   XY=             -0.7326   XZ=              0.0000   YZ=              0.0000
 Traceless Quadrupole moment (field-independent basis, Debye-Ang):
   XX=             -1.2712   YY=             -0.6702   ZZ=              1.9414
   XY=             -0.7326   XZ=              0.0000   YZ=              0.0000
 Octapole moment (field-independent basis, Debye-Ang**2):
  XXX=             -3.7929  YYY=              1.3238  ZZZ=              0.0000  XYY=             -0.6489
  XXY=             -1.2704  XXZ=              0.0000  XZZ=             -0.7261  YZZ=              0.1878
  YYZ=              0.0000  XYZ=              0.0000
 Hexadecapole moment (field-independent basis, Debye-Ang**3):
 XXXX=           -150.6963 YYYY=            -73.9750 ZZZZ=            -16.5197 XXXY=             -1.9581
 XXXZ=              0.0000 YYYX=             -0.4112 YYYZ=              0.0000 ZZZX=              0.0000
 ZZZY=              0.0000 XXYY=            -40.8536 XXZZ=            -29.1501 YYZZ=            -16.5287
 XXYZ=              0.0000 YYXZ=              0.0000 ZZXY=             -0.1031
 N-N= 3.659479524102D+02 E-N=-1.791231885124D+03  KE= 4.593461290335D+02
 Symmetry A'   KE= 4.250376200869D+02
 Symmetry A"   KE= 3.430850894661D+01
 1|1|UNPC-INANI_LAP|SP|RwB97XD|3-21G|O6|EMMAN|30-Mar-2026|0||# wb97xd/3
 -21g||Title Card Required - Distancia 1.000A - Paso 0||0,1|O,0,0.12491
 732,-0.08004175,0.|O,0,-2.00597617,-0.37041996,0.|O,0,-0.93334631,0.39
 890778,0.|O,0,0.27581151,-1.06859167,0.|O,0,-1.85508197,-1.35896988,0.
 |O,0,-0.78245211,-0.58964213,0.||Version=IA32W-G09RevD.01|State=1-A'|H
 F=-445.1878255|RMSD=9.924e-009|Dipole=0.7086732,0.1719517,0.|Quadrupol
 e=-1.0973975,-0.3459562,1.4433537,0.4531982,0.,0.|PG=CS [SG(O6)]||@


 A BIRD IN THE HAND IS SAFER THAN ONE OVERHEAD.

                       -- NEWTON'S SEVENTH LAW
 Job cpu time:       0 days  0 hours  0 minutes  3.0 seconds.
 File lengths (MBytes):  RWF=      5 Int=      0 D2E=      0 Chk=      1 Scr=      1
 Normal termination of Gaussian 09 at Mon Mar 30 22:23:09 2026.
