 Entering Link 1 = C:\G09W\l1.exe PID=     12192.
  
 Copyright (c) 1988,1990,1992,1993,1995,1998,2003,2009,2013,
            Gaussian, Inc.  All Rights Reserved.
  
 This is part of the Gaussian(R) 09 program.  It is based on
 the Gaussian(R) 03 system (copyright 2003, Gaussian, Inc.),
 the Gaussian(R) 98 system (copyright 1998, Gaussian, Inc.),
 the Gaussian(R) 94 system (copyright 1995, Gaussian, Inc.),
 the Gaussian 92(TM) system (copyright 1992, Gaussian, Inc.),
 the Gaussian 90(TM) system (copyright 1990, Gaussian, Inc.),
 the Gaussian 88(TM) system (copyright 1988, Gaussian, Inc.),
 the Gaussian 86(TM) system (copyright 1986, Carnegie Mellon
 University), and the Gaussian 82(TM) system (copyright 1983,
 Carnegie Mellon University). Gaussian is a federally registered
 trademark of Gaussian, Inc.
  
 This software contains proprietary and confidential information,
 including trade secrets, belonging to Gaussian, Inc.
  
 This software is provided under written license and may be
 used, copied, transmitted, or stored only in accord with that
 written license.
  
 The following legend is applicable only to US Government
 contracts under FAR:
  
                    RESTRICTED RIGHTS LEGEND
  
 Use, reproduction and disclosure by the US Government is
 subject to restrictions as set forth in subparagraphs (a)
 and (c) of the Commercial Computer Software - Restricted
 Rights clause in FAR 52.227-19.
  
 Gaussian, Inc.
 340 Quinnipiac St., Bldg. 40, Wallingford CT 06492
  
  
 ---------------------------------------------------------------
 Warning -- This program may not be used in any manner that
 competes with the business of Gaussian, Inc. or will provide
 assistance to any competitor of Gaussian, Inc.  The licensee
 of this program is prohibited from giving any competitor of
 Gaussian, Inc. access to this program.  By using this program,
 the user acknowledges that Gaussian, Inc. is engaged in the
 business of creating and licensing software in the field of
 computational chemistry and represents and warrants to the
 licensee that it is not a competitor of Gaussian, Inc. and that
 it will not use this program in any manner prohibited above.
 ---------------------------------------------------------------
  

 Cite this work as:
 Gaussian 09, Revision D.01,
 M. J. Frisch, G. W. Trucks, H. B. Schlegel, G. E. Scuseria, 
 M. A. Robb, J. R. Cheeseman, G. Scalmani, V. Barone, B. Mennucci, 
 G. A. Petersson, H. Nakatsuji, M. Caricato, X. Li, H. P. Hratchian, 
 A. F. Izmaylov, J. Bloino, G. Zheng, J. L. Sonnenberg, M. Hada, 
 M. Ehara, K. Toyota, R. Fukuda, J. Hasegawa, M. Ishida, T. Nakajima, 
 Y. Honda, O. Kitao, H. Nakai, T. Vreven, J. A. Montgomery, Jr., 
 J. E. Peralta, F. Ogliaro, M. Bearpark, J. J. Heyd, E. Brothers, 
 K. N. Kudin, V. N. Staroverov, T. Keith, R. Kobayashi, J. Normand, 
 K. Raghavachari, A. Rendell, J. C. Burant, S. S. Iyengar, J. Tomasi, 
 M. Cossi, N. Rega, J. M. Millam, M. Klene, J. E. Knox, J. B. Cross, 
 V. Bakken, C. Adamo, J. Jaramillo, R. Gomperts, R. E. Stratmann, 
 O. Yazyev, A. J. Austin, R. Cammi, C. Pomelli, J. W. Ochterski, 
 R. L. Martin, K. Morokuma, V. G. Zakrzewski, G. A. Voth, 
 P. Salvador, J. J. Dannenberg, S. Dapprich, A. D. Daniels, 
 O. Farkas, J. B. Foresman, J. V. Ortiz, J. Cioslowski, 
 and D. J. Fox, Gaussian, Inc., Wallingford CT, 2013.
 
 ******************************************
 Gaussian 09:  IA32W-G09RevD.01 24-Apr-2013
                19-Oct-2025 
 ******************************************
 %chk=C:\Users\inani\Documents\AG\AG.chk
 --------------
 #p b3lyp/3-21g
 --------------
 1/38=1/1;
 2/12=2,17=6,18=5,40=1/2;
 3/5=5,11=2,16=1,25=1,30=1,74=-5/1,2,3;
 4//1;
 5/5=2,38=5/2;
 6/7=2,8=2,9=2,10=2,28=1/1;
 99/5=1,9=1/99;
 Leave Link    1 at Sun Oct 19 14:18:58 2025, MaxMem=           0 cpu:         0.0
 (Enter C:\G09W\l101.exe)
 -------------------
 Title Card Required
 -------------------
 Symbolic Z-matrix:
 Charge =  0 Multiplicity = 1
 Ag                    0.        0.        1.25 
 Ag                    0.        0.        0. 
 
 NAtoms=      2 NQM=        2 NQMF=       0 NMMI=      0 NMMIF=      0
                NMic=       0 NMicF=      0.
                    Isotopes and Nuclear Properties:
 (Nuclear quadrupole moments (NQMom) in fm**2, nuclear magnetic moments (NMagM)
  in nuclear magnetons)

  Atom         1           2
 IAtWgt=         107         107
 AtmWgt= 106.9050900 106.9050900
 NucSpn=           1           1
 AtZEff=   0.0000000   0.0000000
 NQMom=    0.0000000   0.0000000
 NMagM=   -0.1135700  -0.1135700
 AtZNuc=  47.0000000  47.0000000
 Leave Link  101 at Sun Oct 19 14:18:58 2025, MaxMem=    33554432 cpu:         0.0
 (Enter C:\G09W\l202.exe)
                          Input orientation:                          
 ---------------------------------------------------------------------
 Center     Atomic      Atomic             Coordinates (Angstroms)
 Number     Number       Type             X           Y           Z
 ---------------------------------------------------------------------
      1         47           0        0.000000    0.000000    1.250000
      2         47           0        0.000000    0.000000    0.000000
 ---------------------------------------------------------------------
 Stoichiometry    Ag2
 Framework group  D*H[C*(Ag.Ag)]
 Deg. of freedom     1
 Full point group                 D*H     NOp   8
 Largest Abelian subgroup         D2H     NOp   8
 Largest concise Abelian subgroup C2      NOp   2
                         Standard orientation:                         
 ---------------------------------------------------------------------
 Center     Atomic      Atomic             Coordinates (Angstroms)
 Number     Number       Type             X           Y           Z
 ---------------------------------------------------------------------
      1         47           0        0.000000    0.000000    0.625000
      2         47           0        0.000000    0.000000   -0.625000
 ---------------------------------------------------------------------
 Rotational constants (GHZ):      0.0000000      6.0510227      6.0510227
 Leave Link  202 at Sun Oct 19 14:18:58 2025, MaxMem=    33554432 cpu:         0.0
 (Enter C:\G09W\l301.exe)
 Standard basis: 3-21G (6D, 7F)
 Ernie: Thresh=  0.10000D-02 Tol=  0.10000D-05 Strict=F.
 There are    20 symmetry adapted cartesian basis functions of AG  symmetry.
 There are     3 symmetry adapted cartesian basis functions of B1G symmetry.
 There are     8 symmetry adapted cartesian basis functions of B2G symmetry.
 There are     8 symmetry adapted cartesian basis functions of B3G symmetry.
 There are     3 symmetry adapted cartesian basis functions of AU  symmetry.
 There are    20 symmetry adapted cartesian basis functions of B1U symmetry.
 There are     8 symmetry adapted cartesian basis functions of B2U symmetry.
 There are     8 symmetry adapted cartesian basis functions of B3U symmetry.
 There are    20 symmetry adapted basis functions of AG  symmetry.
 There are     3 symmetry adapted basis functions of B1G symmetry.
 There are     8 symmetry adapted basis functions of B2G symmetry.
 There are     8 symmetry adapted basis functions of B3G symmetry.
 There are     3 symmetry adapted basis functions of AU  symmetry.
 There are    20 symmetry adapted basis functions of B1U symmetry.
 There are     8 symmetry adapted basis functions of B2U symmetry.
 There are     8 symmetry adapted basis functions of B3U symmetry.
    78 basis functions,   174 primitive gaussians,    78 cartesian basis functions
    47 alpha electrons       47 beta electrons
       nuclear repulsion energy       935.1619630202 Hartrees.
 IExCor=  402 DFT=T Ex+Corr=B3LYP ExCW=0 ScaHFX=  0.200000
 ScaDFX=  0.800000  0.720000  1.000000  0.810000 ScalE2=  1.000000  1.000000
 IRadAn=      0 IRanWt=     -1 IRanGd=            0 ICorTp=0 IEmpDi=  4
 NAtoms=    2 NActive=    2 NUniq=    1 SFac= 4.00D+00 NAtFMM=   60 NAOKFM=F Big=F
 Integral buffers will be    262144 words long.
 Raffenetti 2 integral format.
 Two-electron integral symmetry is turned on.
 Leave Link  301 at Sun Oct 19 14:18:58 2025, MaxMem=    33554432 cpu:         0.0
 (Enter C:\G09W\l302.exe)
 NPDir=0 NMtPBC=     1 NCelOv=     1 NCel=       1 NClECP=     1 NCelD=      1
         NCelK=      1 NCelE2=     1 NClLst=     1 CellRange=     0.0.
 One-electron integrals computed using PRISM.
 One-electron integral symmetry used in STVInt
 NBasis=    78 RedAO= T EigKep=  8.84D-05  NBF=    20     3     8     8     3    20     8     8
 NBsUse=    78 1.00D-06 EigRej= -1.00D+00 NBFU=    20     3     8     8     3    20     8     8
 Precomputing XC quadrature grid using
 IXCGrd= 4 IRadAn=           0 IRanWt=          -1 IRanGd=           0 AccXCQ= 0.00D+00.
 Defaulting to unpruned grid for atomic number  47.
 Generated NRdTot=       0 NPtTot=           0 NUsed=           0 NTot=          16
 NSgBfM=    73    73    73    73    73 MxSgAt=     2 MxSgA2=     2.
 Leave Link  302 at Sun Oct 19 14:18:58 2025, MaxMem=    33554432 cpu:         0.0
 (Enter C:\G09W\l303.exe)
 DipDrv:  MaxL=1.
 Leave Link  303 at Sun Oct 19 14:18:58 2025, MaxMem=    33554432 cpu:         0.0
 (Enter C:\G09W\l401.exe)
 ExpMin= 3.49D-02 ExpMax= 1.12D+04 ExpMxC= 1.12D+04 IAcc=3 IRadAn=         5 AccDes= 0.00D+00
 Harris functional with IExCor=  402 and IRadAn=       5 diagonalized for initial guess.
 HarFok:  IExCor=  402 AccDes= 0.00D+00 IRadAn=         5 IDoV= 1 UseB2=F ITyADJ=14
 ICtDFT=  3500011 ScaDFX=  1.000000  1.000000  1.000000  1.000000
 Defaulting to unpruned grid for atomic number  47.
 FoFCou: FMM=F IPFlag=           0 FMFlag=      100000 FMFlg1=           0
         NFxFlg=           0 DoJE=T BraDBF=F KetDBF=T FulRan=T
         wScrn=  0.000000 ICntrl=     500 IOpCl=  0 I1Cent=   200000004 NGrid=           0
         NMat0=    1 NMatS0=      1 NMatT0=    0 NMatD0=    1 NMtDS0=    0 NMtDT0=    0
 Petite list used in FoFCou.
 Harris En= -10350.3971608045    
 JPrj=0 DoOrth=F DoCkMO=F.
 Initial guess orbital symmetries:
       Occupied  (SGG) (SGU) (SGU) (SGG) (SGU) (PIG) (PIG) (SGG)
                 (PIU) (PIU) (SGG) (SGU) (SGG) (SGU) (PIG) (PIG)
                 (PIU) (PIU) (SGG) (SGU) (PIG) (PIG) (PIU) (PIU)
                 (DLTU) (DLTU) (DLTG) (DLTG) (SGG) (SGU) (SGG)
                 (PIU) (PIU) (PIG) (PIG) (SGU) (PIU) (PIU) (SGG)
                 (DLTG) (DLTG) (DLTU) (DLTU) (SGG) (SGU) (PIU)
                 (PIU)
       Virtual   (PIG) (PIG) (SGG) (SGU) (SGG) (PIG) (PIG) (PIU)
                 (PIU) (SGU) (SGU) (SGG) (PIG) (PIG) (SGG) (SGU)
                 (SGU) (DLTG) (DLTG) (PIU) (PIU) (DLTU) (DLTU)
                 (PIG) (PIG) (SGG) (SGU) (SGG) (SGU) (SGU) (SGG)
 The electronic state of the initial guess is 1-SGG.
 Leave Link  401 at Sun Oct 19 14:18:58 2025, MaxMem=    33554432 cpu:         0.0
 (Enter C:\G09W\l502.exe)
 Closed shell SCF:
 Using DIIS extrapolation, IDIIS=  1040.
 Integral symmetry usage will be decided dynamically.
 Keep R1 ints in memory in symmetry-blocked form, NReq=5685550.
 IVT=       37753 IEndB=       37753 NGot=    33554432 MDV=    32866241
 LenX=    32866241 LenY=    32859716
 Requested convergence on RMS density matrix=1.00D-08 within 128 cycles.
 Requested convergence on MAX density matrix=1.00D-06.
 Requested convergence on             energy=1.00D-06.
 No special actions if energy rises.
 FoFCou: FMM=F IPFlag=           0 FMFlag=           0 FMFlg1=           0
         NFxFlg=           0 DoJE=F BraDBF=F KetDBF=F FulRan=T
         wScrn=  0.000000 ICntrl=     600 IOpCl=  0 I1Cent=           0 NGrid=           0
         NMat0=    1 NMatS0=   3081 NMatT0=    0 NMatD0=    1 NMtDS0=    0 NMtDT0=    0
 Petite list used in FoFCou.

 Cycle   1  Pass 1  IDiag  1:
 Defaulting to unpruned grid for atomic number  47.
 E= -10344.5555285224    
 DIIS: error= 4.17D-01 at cycle   1 NSaved=   1.
 NSaved= 1 IEnMin= 1 EnMin= -10344.5555285224     IErMin= 1 ErrMin= 4.17D-01
 ErrMax= 4.17D-01  0.00D+00 EMaxC= 1.00D-01 BMatC= 8.19D+00 BMatP= 8.19D+00
 IDIUse=3 WtCom= 0.00D+00 WtEn= 1.00D+00
 Coeff-Com:  0.100D+01
 Coeff-En:   0.100D+01
 Coeff:      0.100D+01
 Gap=     0.043 Goal=   None    Shift=    0.000
 GapD=    0.043 DampG=0.250 DampE=0.125 DampFc=0.1250 IDamp=-1.
 Damping current iteration by 1.25D-01
 RMSDP=1.29D-01 MaxDP=3.38D+00              OVMax= 0.00D+00

 Cycle   2  Pass 1  IDiag  1:
 E= -10345.7910516370     Delta-E=       -1.235523114588 Rises=F Damp=T
 DIIS: error= 3.59D-01 at cycle   2 NSaved=   2.
 NSaved= 2 IEnMin= 2 EnMin= -10345.7910516370     IErMin= 2 ErrMin= 3.59D-01
 ErrMax= 3.59D-01  0.00D+00 EMaxC= 1.00D-01 BMatC= 4.97D+00 BMatP= 8.19D+00
 IDIUse=3 WtCom= 0.00D+00 WtEn= 1.00D+00
 Coeff-Com: -0.283D+01 0.383D+01
 Coeff-En:   0.000D+00 0.100D+01
 Coeff:      0.000D+00 0.100D+01
 Gap=     0.373 Goal=   None    Shift=    0.000
 RMSDP=1.06D-01 MaxDP=2.97D+00 DE=-1.24D+00 OVMax= 0.00D+00

 Cycle   3  Pass 1  IDiag  1:
 E= -10345.0999631553     Delta-E=        0.691088481668 Rises=F Damp=F
 DIIS: error= 2.52D-01 at cycle   3 NSaved=   3.
 NSaved= 3 IEnMin= 2 EnMin= -10345.7910516370     IErMin= 3 ErrMin= 2.52D-01
 ErrMax= 2.52D-01  0.00D+00 EMaxC= 1.00D-01 BMatC= 4.92D+00 BMatP= 4.97D+00
 IDIUse=3 WtCom= 0.00D+00 WtEn= 1.00D+00
 EnCoef did   100 forward-backward iterations
 Coeff-Com: -0.187D+01 0.268D+01 0.186D+00
 Coeff-En:   0.471D+00 0.472D-02 0.525D+00
 Coeff:      0.471D+00 0.472D-02 0.525D+00
 Gap=     0.006 Goal=   None    Shift=    0.000
 RMSDP=1.35D-01 MaxDP=3.04D+00 DE= 6.91D-01 OVMax= 0.00D+00

 Cycle   4  Pass 1  IDiag  1:
 E= -10348.6465299811     Delta-E=       -3.546566825771 Rises=F Damp=F
 DIIS: error= 2.88D-02 at cycle   4 NSaved=   4.
 NSaved= 4 IEnMin= 4 EnMin= -10348.6465299811     IErMin= 4 ErrMin= 2.88D-02
 ErrMax= 2.88D-02  0.00D+00 EMaxC= 1.00D-01 BMatC= 7.34D-02 BMatP= 4.92D+00
 IDIUse=3 WtCom= 7.12D-01 WtEn= 2.88D-01
 Coeff-Com:  0.625D-01-0.593D-01-0.810D-01 0.108D+01
 Coeff-En:   0.123D-01 0.000D+00 0.000D+00 0.988D+00
 Coeff:      0.480D-01-0.422D-01-0.577D-01 0.105D+01
 Gap=     0.000 Goal=   None    Shift=    0.000
 RMSDP=2.31D-01 MaxDP=7.87D+00 DE=-3.55D+00 OVMax= 0.00D+00

 Cycle   5  Pass 1  IDiag  1:
 E= -10348.5338594573     Delta-E=        0.112670523748 Rises=F Damp=F
 DIIS: error= 5.78D-02 at cycle   5 NSaved=   5.
 NSaved= 5 IEnMin= 4 EnMin= -10348.6465299811     IErMin= 4 ErrMin= 2.88D-02
 ErrMax= 5.78D-02  0.00D+00 EMaxC= 1.00D-01 BMatC= 2.84D-01 BMatP= 7.34D-02
 IDIUse=2 WtCom= 0.00D+00 WtEn= 1.00D+00
 Coeff-En:   0.000D+00 0.000D+00 0.000D+00 0.633D+00 0.367D+00
 Coeff:      0.000D+00 0.000D+00 0.000D+00 0.633D+00 0.367D+00
 Gap=     0.045 Goal=   None    Shift=    0.000
 RMSDP=7.22D-02 MaxDP=1.19D+00 DE= 1.13D-01 OVMax= 0.00D+00

 Cycle   6  Pass 1  IDiag  1:
 E= -10348.7552308612     Delta-E=       -0.221371403897 Rises=F Damp=F
 DIIS: error= 4.12D-03 at cycle   6 NSaved=   6.
 NSaved= 6 IEnMin= 6 EnMin= -10348.7552308612     IErMin= 6 ErrMin= 4.12D-03
 ErrMax= 4.12D-03  0.00D+00 EMaxC= 1.00D-01 BMatC= 1.58D-03 BMatP= 7.34D-02
 IDIUse=3 WtCom= 9.59D-01 WtEn= 4.12D-02
 Coeff-Com: -0.183D-02 0.298D-02-0.488D-03 0.581D-01-0.465D-01 0.988D+00
 Coeff-En:   0.000D+00 0.000D+00 0.000D+00 0.000D+00 0.000D+00 0.100D+01
 Coeff:     -0.175D-02 0.285D-02-0.468D-03 0.557D-01-0.446D-01 0.988D+00
 Gap=     0.060 Goal=   None    Shift=    0.000
 RMSDP=1.65D-02 MaxDP=4.81D-01 DE=-2.21D-01 OVMax= 0.00D+00

 Cycle   7  Pass 1  IDiag  1:
 E= -10348.7564035530     Delta-E=       -0.001172691778 Rises=F Damp=F
 DIIS: error= 1.26D-03 at cycle   7 NSaved=   7.
 NSaved= 7 IEnMin= 7 EnMin= -10348.7564035530     IErMin= 7 ErrMin= 1.26D-03
 ErrMax= 1.26D-03  0.00D+00 EMaxC= 1.00D-01 BMatC= 1.48D-04 BMatP= 1.58D-03
 IDIUse=3 WtCom= 9.87D-01 WtEn= 1.26D-02
 Coeff-Com:  0.239D-02-0.286D-02 0.576D-03 0.370D-02-0.175D-01-0.611D-01
 Coeff-Com:  0.107D+01
 Coeff-En:   0.000D+00 0.000D+00 0.000D+00 0.000D+00 0.000D+00 0.000D+00
 Coeff-En:   0.100D+01
 Coeff:      0.236D-02-0.282D-02 0.569D-03 0.365D-02-0.173D-01-0.603D-01
 Coeff:      0.107D+01
 Gap=     0.061 Goal=   None    Shift=    0.000
 RMSDP=6.29D-03 MaxDP=2.13D-01 DE=-1.17D-03 OVMax= 0.00D+00

 Cycle   8  Pass 1  IDiag  1:
 E= -10348.7565196717     Delta-E=       -0.000116118732 Rises=F Damp=F
 DIIS: error= 2.46D-04 at cycle   8 NSaved=   8.
 NSaved= 8 IEnMin= 8 EnMin= -10348.7565196717     IErMin= 8 ErrMin= 2.46D-04
 ErrMax= 2.46D-04  0.00D+00 EMaxC= 1.00D-01 BMatC= 5.37D-06 BMatP= 1.48D-04
 IDIUse=3 WtCom= 9.98D-01 WtEn= 2.46D-03
 Coeff-Com: -0.160D-03 0.187D-03 0.107D-03 0.997D-03-0.156D-02-0.536D-02
 Coeff-Com: -0.796D-01 0.109D+01
 Coeff-En:   0.000D+00 0.000D+00 0.000D+00 0.000D+00 0.000D+00 0.000D+00
 Coeff-En:   0.000D+00 0.100D+01
 Coeff:     -0.160D-03 0.186D-03 0.107D-03 0.995D-03-0.156D-02-0.535D-02
 Coeff:     -0.794D-01 0.109D+01
 Gap=     0.061 Goal=   None    Shift=    0.000
 RMSDP=1.94D-03 MaxDP=6.50D-02 DE=-1.16D-04 OVMax= 0.00D+00

 Cycle   9  Pass 1  IDiag  1:
 E= -10348.7565236236     Delta-E=       -0.000003951915 Rises=F Damp=F
 DIIS: error= 4.78D-05 at cycle   9 NSaved=   9.
 NSaved= 9 IEnMin= 9 EnMin= -10348.7565236236     IErMin= 9 ErrMin= 4.78D-05
 ErrMax= 4.78D-05  0.00D+00 EMaxC= 1.00D-01 BMatC= 2.03D-07 BMatP= 5.37D-06
 IDIUse=1 WtCom= 1.00D+00 WtEn= 0.00D+00
 Coeff-Com: -0.401D-04 0.471D-04 0.253D-05 0.478D-04 0.532D-04 0.805D-03
 Coeff-Com: -0.276D-01-0.834D-01 0.111D+01
 Coeff:     -0.401D-04 0.471D-04 0.253D-05 0.478D-04 0.532D-04 0.805D-03
 Coeff:     -0.276D-01-0.834D-01 0.111D+01
 Gap=     0.061 Goal=   None    Shift=    0.000
 RMSDP=3.65D-04 MaxDP=1.27D-02 DE=-3.95D-06 OVMax= 0.00D+00

 Cycle  10  Pass 1  IDiag  1:
 E= -10348.7565237751     Delta-E=       -0.000000151438 Rises=F Damp=F
 DIIS: error= 3.32D-06 at cycle  10 NSaved=  10.
 NSaved=10 IEnMin=10 EnMin= -10348.7565237751     IErMin=10 ErrMin= 3.32D-06
 ErrMax= 3.32D-06  0.00D+00 EMaxC= 1.00D-01 BMatC= 9.10D-10 BMatP= 2.03D-07
 IDIUse=1 WtCom= 1.00D+00 WtEn= 0.00D+00
 Coeff-Com: -0.477D-05 0.619D-05-0.298D-06 0.525D-04-0.301D-04 0.558D-03
 Coeff-Com:  0.171D-02-0.117D-01 0.897D-01 0.920D+00
 Coeff:     -0.477D-05 0.619D-05-0.298D-06 0.525D-04-0.301D-04 0.558D-03
 Coeff:      0.171D-02-0.117D-01 0.897D-01 0.920D+00
 Gap=     0.061 Goal=   None    Shift=    0.000
 RMSDP=1.84D-05 MaxDP=5.60D-04 DE=-1.51D-07 OVMax= 0.00D+00

 Cycle  11  Pass 1  IDiag  1:
 E= -10348.7565237760     Delta-E=       -0.000000000879 Rises=F Damp=F
 DIIS: error= 7.24D-08 at cycle  11 NSaved=  11.
 NSaved=11 IEnMin=11 EnMin= -10348.7565237760     IErMin=11 ErrMin= 7.24D-08
 ErrMax= 7.24D-08  0.00D+00 EMaxC= 1.00D-01 BMatC= 2.66D-13 BMatP= 9.10D-10
 IDIUse=1 WtCom= 1.00D+00 WtEn= 0.00D+00
 Coeff-Com: -0.109D-06 0.698D-07-0.871D-07 0.363D-06 0.263D-06-0.350D-04
 Coeff-Com:  0.979D-04 0.191D-02-0.102D-01-0.594D-02 0.101D+01
 Coeff:     -0.109D-06 0.698D-07-0.871D-07 0.363D-06 0.263D-06-0.350D-04
 Coeff:      0.979D-04 0.191D-02-0.102D-01-0.594D-02 0.101D+01
 Gap=     0.061 Goal=   None    Shift=    0.000
 RMSDP=4.47D-07 MaxDP=7.99D-06 DE=-8.79D-10 OVMax= 0.00D+00

 Cycle  12  Pass 1  IDiag  1:
 E= -10348.7565237759     Delta-E=        0.000000000058 Rises=F Damp=F
 DIIS: error= 2.94D-08 at cycle  12 NSaved=  12.
 NSaved=12 IEnMin=11 EnMin= -10348.7565237760     IErMin=12 ErrMin= 2.94D-08
 ErrMax= 2.94D-08  0.00D+00 EMaxC= 1.00D-01 BMatC= 7.97D-14 BMatP= 2.66D-13
 IDIUse=1 WtCom= 1.00D+00 WtEn= 0.00D+00
 Coeff-Com:  0.425D-08-0.407D-08 0.857D-08-0.235D-06 0.584D-07-0.167D-05
 Coeff-Com: -0.200D-06 0.359D-04 0.214D-03-0.373D-02-0.381D-01 0.104D+01
 Coeff:      0.425D-08-0.407D-08 0.857D-08-0.235D-06 0.584D-07-0.167D-05
 Coeff:     -0.200D-06 0.359D-04 0.214D-03-0.373D-02-0.381D-01 0.104D+01
 Gap=     0.061 Goal=   None    Shift=    0.000
 RMSDP=1.73D-07 MaxDP=5.65D-06 DE= 5.82D-11 OVMax= 0.00D+00

 Cycle  13  Pass 1  IDiag  1:
 E= -10348.7565237759     Delta-E=       -0.000000000038 Rises=F Damp=F
 DIIS: error= 8.05D-10 at cycle  13 NSaved=  13.
 NSaved=13 IEnMin=11 EnMin= -10348.7565237760     IErMin=13 ErrMin= 8.05D-10
 ErrMax= 8.05D-10  0.00D+00 EMaxC= 1.00D-01 BMatC= 6.48D-17 BMatP= 7.97D-14
 IDIUse=1 WtCom= 1.00D+00 WtEn= 0.00D+00
 Large coefficients: NSaved= 13 BigCof=    0.00 CofMax=   10.00 Det=-1.78D-16
 Inversion failed.  Reducing to 12 matrices.
 Coeff-Com:  0.435D-11-0.179D-09 0.371D-08-0.187D-08 0.170D-06-0.602D-06
 Coeff-Com: -0.126D-05-0.958D-05 0.235D-03 0.187D-02-0.876D-01 0.109D+01
 Coeff:      0.435D-11-0.179D-09 0.371D-08-0.187D-08 0.170D-06-0.602D-06
 Coeff:     -0.126D-05-0.958D-05 0.235D-03 0.187D-02-0.876D-01 0.109D+01
 Gap=     0.061 Goal=   None    Shift=    0.000
 RMSDP=6.30D-09 MaxDP=2.03D-07 DE=-3.82D-11 OVMax= 0.00D+00

 SCF Done:  E(RB3LYP) =  -10348.7565238     A.U. after   13 cycles
            NFock= 13  Conv=0.63D-08     -V/T= 2.0023
 KE= 1.032519260805D+04 PE=-2.647538240551D+04 EE= 4.866271310665D+03
 Leave Link  502 at Sun Oct 19 14:19:00 2025, MaxMem=    33554432 cpu:         2.0
 (Enter C:\G09W\l601.exe)
 Copying SCF densities to generalized density rwf, IOpCl= 0 IROHF=0.

 **********************************************************************

            Population analysis using the SCF density.

 **********************************************************************

 Orbital symmetries:
       Occupied  (SGG) (SGU) (SGU) (SGG) (SGU) (SGG) (PIG) (PIG)
                 (PIU) (PIU) (SGG) (SGU) (SGG) (SGU) (PIU) (PIU)
                 (PIG) (PIG) (SGG) (SGU) (PIG) (PIG) (PIU) (PIU)
                 (DLTU) (DLTU) (DLTG) (DLTG) (SGG) (SGU) (SGG)
                 (PIU) (PIU) (PIG) (PIG) (SGU) (PIU) (PIU) (SGG)
                 (DLTG) (DLTG) (DLTU) (DLTU) (PIG) (PIG) (SGG)
                 (SGU)
       Virtual   (PIU) (PIU) (SGU) (SGG) (PIG) (PIG) (SGG) (PIU)
                 (PIU) (SGU) (SGU) (SGG) (PIG) (PIG) (SGG) (SGU)
                 (SGU) (DLTG) (DLTG) (PIU) (PIU) (DLTU) (DLTU)
                 (PIG) (PIG) (SGG) (SGU) (SGG) (SGU) (SGU) (SGG)
 The electronic state is 1-SGG.
 Alpha  occ. eigenvalues -- -899.01884-899.01755-130.77099-130.77092-121.27580
 Alpha  occ. eigenvalues -- -121.26817-121.26454-121.26454-121.26287-121.26287
 Alpha  occ. eigenvalues --  -24.46336 -24.46304 -20.45578 -20.45391 -20.40912
 Alpha  occ. eigenvalues --  -20.40912 -20.40912 -20.40912 -13.93951 -13.93501
 Alpha  occ. eigenvalues --  -13.92492 -13.92492 -13.92435 -13.92435 -13.89769
 Alpha  occ. eigenvalues --  -13.89769 -13.89720 -13.89720  -4.36670  -3.55223
 Alpha  occ. eigenvalues --   -2.84871  -2.65032  -2.65032  -2.30905  -2.30905
 Alpha  occ. eigenvalues --   -2.01830  -0.95288  -0.95288  -0.88380  -0.74043
 Alpha  occ. eigenvalues --   -0.74043  -0.48540  -0.48540  -0.28398  -0.28398
 Alpha  occ. eigenvalues --   -0.26021  -0.15732
 Alpha virt. eigenvalues --   -0.09612  -0.09612  -0.02970   0.02510   0.04425
 Alpha virt. eigenvalues --    0.04425   0.06188   0.07575   0.07575   0.08088
 Alpha virt. eigenvalues --    0.14629   0.19069   0.21533   0.21533   0.56192
 Alpha virt. eigenvalues --    0.59505   0.85655   0.99522   0.99522   1.12410
 Alpha virt. eigenvalues --    1.12410   1.24632   1.24632   1.33559   1.33559
 Alpha virt. eigenvalues --    1.37423   1.56004   4.06333   4.29974 195.25659
 Alpha virt. eigenvalues --  195.47057
          Condensed to atoms (all electrons):
               1          2
     1  Ag  91.743211 -44.743211
     2  Ag -44.743211  91.743211
 Mulliken charges:
               1
     1  Ag   0.000000
     2  Ag   0.000000
 Sum of Mulliken charges =   0.00000
 Mulliken charges with hydrogens summed into heavy atoms:
               1
     1  Ag   0.000000
     2  Ag   0.000000
 Electronic spatial extent (au):  <R**2>=            239.0829
 Charge=              0.0000 electrons
 Dipole moment (field-independent basis, Debye):
    X=              0.0000    Y=              0.0000    Z=              0.0000  Tot=              0.0000
 Quadrupole moment (field-independent basis, Debye-Ang):
   XX=            -46.5586   YY=            -46.5586   ZZ=            -52.0898
   XY=              0.0000   XZ=              0.0000   YZ=              0.0000
 Traceless Quadrupole moment (field-independent basis, Debye-Ang):
   XX=              1.8437   YY=              1.8437   ZZ=             -3.6874
   XY=              0.0000   XZ=              0.0000   YZ=              0.0000
 Octapole moment (field-independent basis, Debye-Ang**2):
  XXX=              0.0000  YYY=              0.0000  ZZZ=              0.0000  XYY=              0.0000
  XXY=              0.0000  XXZ=              0.0000  XZZ=              0.0000  YZZ=              0.0000
  YYZ=              0.0000  XYZ=              0.0000
 Hexadecapole moment (field-independent basis, Debye-Ang**3):
 XXXX=            -72.2948 YYYY=            -72.2948 ZZZZ=           -204.2346 XXXY=              0.0000
 XXXZ=              0.0000 YYYX=              0.0000 YYYZ=              0.0000 ZZZX=              0.0000
 ZZZY=              0.0000 XXYY=            -24.0983 XXZZ=            -51.7547 YYZZ=            -51.7547
 XXYZ=              0.0000 YYXZ=              0.0000 ZZXY=              0.0000
 N-N= 9.351619630202D+02 E-N=-2.647538240496D+04  KE= 1.032519260805D+04
 Symmetry AG   KE= 3.569181870696D+03
 Symmetry B1G  KE= 1.258535434465D+02
 Symmetry B2G  KE= 7.350055761224D+02
 Symmetry B3G  KE= 7.350055761224D+02
 Symmetry AU   KE= 1.291849299607D+02
 Symmetry B1U  KE= 3.570255541590D+03
 Symmetry B2U  KE= 7.303527850555D+02
 Symmetry B3U  KE= 7.303527850555D+02
 No NMR shielding tensors so no spin-rotation constants.
 Leave Link  601 at Sun Oct 19 14:19:00 2025, MaxMem=    33554432 cpu:         0.0
 (Enter C:\G09W\l9999.exe)
 1|1|UNPC-PRO|SP|RB3LYP|3-21G|Ag2|INANI|19-Oct-2025|0||#p b3lyp/3-21g||
 Title Card Required||0,1|Ag,0,0.,0.,1.25|Ag,0,0.,0.,0.||Version=IA32W-
 G09RevD.01|State=1-SGG|HF=-10348.7565238|RMSD=6.299e-009|Dipole=0.,0.,
 0.|Quadrupole=1.3707632,1.3707632,-2.7415264,0.,0.,0.|PG=D*H [C*(Ag1.A
 g1)]||@


 THE REASON MAN'S BEST FRIEND IS A DOG IS BECAUSE
 HE WAGS HIS TAIL INSTEAD OF HIS TONGUE.
 Job cpu time:       0 days  0 hours  0 minutes  2.0 seconds.
 File lengths (MBytes):  RWF=      5 Int=      0 D2E=      0 Chk=      1 Scr=      1
 Normal termination of Gaussian 09 at Sun Oct 19 14:19:00 2025.
