 Entering Link 1 = C:\G09W\l1.exe PID=     20328.
  
 Copyright (c) 1988,1990,1992,1993,1995,1998,2003,2009,2013,
            Gaussian, Inc.  All Rights Reserved.
  
 This is part of the Gaussian(R) 09 program.  It is based on
 the Gaussian(R) 03 system (copyright 2003, Gaussian, Inc.),
 the Gaussian(R) 98 system (copyright 1998, Gaussian, Inc.),
 the Gaussian(R) 94 system (copyright 1995, Gaussian, Inc.),
 the Gaussian 92(TM) system (copyright 1992, Gaussian, Inc.),
 the Gaussian 90(TM) system (copyright 1990, Gaussian, Inc.),
 the Gaussian 88(TM) system (copyright 1988, Gaussian, Inc.),
 the Gaussian 86(TM) system (copyright 1986, Carnegie Mellon
 University), and the Gaussian 82(TM) system (copyright 1983,
 Carnegie Mellon University). Gaussian is a federally registered
 trademark of Gaussian, Inc.
  
 This software contains proprietary and confidential information,
 including trade secrets, belonging to Gaussian, Inc.
  
 This software is provided under written license and may be
 used, copied, transmitted, or stored only in accord with that
 written license.
  
 The following legend is applicable only to US Government
 contracts under FAR:
  
                    RESTRICTED RIGHTS LEGEND
  
 Use, reproduction and disclosure by the US Government is
 subject to restrictions as set forth in subparagraphs (a)
 and (c) of the Commercial Computer Software - Restricted
 Rights clause in FAR 52.227-19.
  
 Gaussian, Inc.
 340 Quinnipiac St., Bldg. 40, Wallingford CT 06492
  
  
 ---------------------------------------------------------------
 Warning -- This program may not be used in any manner that
 competes with the business of Gaussian, Inc. or will provide
 assistance to any competitor of Gaussian, Inc.  The licensee
 of this program is prohibited from giving any competitor of
 Gaussian, Inc. access to this program.  By using this program,
 the user acknowledges that Gaussian, Inc. is engaged in the
 business of creating and licensing software in the field of
 computational chemistry and represents and warrants to the
 licensee that it is not a competitor of Gaussian, Inc. and that
 it will not use this program in any manner prohibited above.
 ---------------------------------------------------------------
  

 Cite this work as:
 Gaussian 09, Revision D.01,
 M. J. Frisch, G. W. Trucks, H. B. Schlegel, G. E. Scuseria, 
 M. A. Robb, J. R. Cheeseman, G. Scalmani, V. Barone, B. Mennucci, 
 G. A. Petersson, H. Nakatsuji, M. Caricato, X. Li, H. P. Hratchian, 
 A. F. Izmaylov, J. Bloino, G. Zheng, J. L. Sonnenberg, M. Hada, 
 M. Ehara, K. Toyota, R. Fukuda, J. Hasegawa, M. Ishida, T. Nakajima, 
 Y. Honda, O. Kitao, H. Nakai, T. Vreven, J. A. Montgomery, Jr., 
 J. E. Peralta, F. Ogliaro, M. Bearpark, J. J. Heyd, E. Brothers, 
 K. N. Kudin, V. N. Staroverov, T. Keith, R. Kobayashi, J. Normand, 
 K. Raghavachari, A. Rendell, J. C. Burant, S. S. Iyengar, J. Tomasi, 
 M. Cossi, N. Rega, J. M. Millam, M. Klene, J. E. Knox, J. B. Cross, 
 V. Bakken, C. Adamo, J. Jaramillo, R. Gomperts, R. E. Stratmann, 
 O. Yazyev, A. J. Austin, R. Cammi, C. Pomelli, J. W. Ochterski, 
 R. L. Martin, K. Morokuma, V. G. Zakrzewski, G. A. Voth, 
 P. Salvador, J. J. Dannenberg, S. Dapprich, A. D. Daniels, 
 O. Farkas, J. B. Foresman, J. V. Ortiz, J. Cioslowski, 
 and D. J. Fox, Gaussian, Inc., Wallingford CT, 2013.
 
 ******************************************
 Gaussian 09:  IA32W-G09RevD.01 24-Apr-2013
                19-Oct-2025 
 ******************************************
 %chk=C:\Users\inani\Documents\AG\AG.chk
 --------------
 #p b3lyp/3-21g
 --------------
 1/38=1/1;
 2/12=2,17=6,18=5,40=1/2;
 3/5=5,11=2,16=1,25=1,30=1,74=-5/1,2,3;
 4//1;
 5/5=2,38=5/2;
 6/7=2,8=2,9=2,10=2,28=1/1;
 99/5=1,9=1/99;
 Leave Link    1 at Sun Oct 19 14:19:23 2025, MaxMem=           0 cpu:         0.0
 (Enter C:\G09W\l101.exe)
 -------------------
 Title Card Required
 -------------------
 Symbolic Z-matrix:
 Charge =  0 Multiplicity = 1
 Ag                    0.        0.        5.5 
 Ag                    0.        0.        0. 
 
 NAtoms=      2 NQM=        2 NQMF=       0 NMMI=      0 NMMIF=      0
                NMic=       0 NMicF=      0.
                    Isotopes and Nuclear Properties:
 (Nuclear quadrupole moments (NQMom) in fm**2, nuclear magnetic moments (NMagM)
  in nuclear magnetons)

  Atom         1           2
 IAtWgt=         107         107
 AtmWgt= 106.9050900 106.9050900
 NucSpn=           1           1
 AtZEff=   0.0000000   0.0000000
 NQMom=    0.0000000   0.0000000
 NMagM=   -0.1135700  -0.1135700
 AtZNuc=  47.0000000  47.0000000
 Leave Link  101 at Sun Oct 19 14:19:23 2025, MaxMem=    33554432 cpu:         0.0
 (Enter C:\G09W\l202.exe)
                          Input orientation:                          
 ---------------------------------------------------------------------
 Center     Atomic      Atomic             Coordinates (Angstroms)
 Number     Number       Type             X           Y           Z
 ---------------------------------------------------------------------
      1         47           0        0.000000    0.000000    5.500000
      2         47           0        0.000000    0.000000    0.000000
 ---------------------------------------------------------------------
 Stoichiometry    Ag2
 Framework group  D*H[C*(Ag.Ag)]
 Deg. of freedom     1
 Full point group                 D*H     NOp   8
 Largest Abelian subgroup         D2H     NOp   8
 Largest concise Abelian subgroup C2      NOp   2
                         Standard orientation:                         
 ---------------------------------------------------------------------
 Center     Atomic      Atomic             Coordinates (Angstroms)
 Number     Number       Type             X           Y           Z
 ---------------------------------------------------------------------
      1         47           0        0.000000    0.000000    2.750000
      2         47           0        0.000000    0.000000   -2.750000
 ---------------------------------------------------------------------
 Rotational constants (GHZ):      0.0000000      0.3125528      0.3125528
 Leave Link  202 at Sun Oct 19 14:19:23 2025, MaxMem=    33554432 cpu:         0.0
 (Enter C:\G09W\l301.exe)
 Standard basis: 3-21G (6D, 7F)
 Ernie: Thresh=  0.10000D-02 Tol=  0.10000D-05 Strict=F.
 There are    20 symmetry adapted cartesian basis functions of AG  symmetry.
 There are     3 symmetry adapted cartesian basis functions of B1G symmetry.
 There are     8 symmetry adapted cartesian basis functions of B2G symmetry.
 There are     8 symmetry adapted cartesian basis functions of B3G symmetry.
 There are     3 symmetry adapted cartesian basis functions of AU  symmetry.
 There are    20 symmetry adapted cartesian basis functions of B1U symmetry.
 There are     8 symmetry adapted cartesian basis functions of B2U symmetry.
 There are     8 symmetry adapted cartesian basis functions of B3U symmetry.
 There are    20 symmetry adapted basis functions of AG  symmetry.
 There are     3 symmetry adapted basis functions of B1G symmetry.
 There are     8 symmetry adapted basis functions of B2G symmetry.
 There are     8 symmetry adapted basis functions of B3G symmetry.
 There are     3 symmetry adapted basis functions of AU  symmetry.
 There are    20 symmetry adapted basis functions of B1U symmetry.
 There are     8 symmetry adapted basis functions of B2U symmetry.
 There are     8 symmetry adapted basis functions of B3U symmetry.
    78 basis functions,   174 primitive gaussians,    78 cartesian basis functions
    47 alpha electrons       47 beta electrons
       nuclear repulsion energy       212.5368097773 Hartrees.
 IExCor=  402 DFT=T Ex+Corr=B3LYP ExCW=0 ScaHFX=  0.200000
 ScaDFX=  0.800000  0.720000  1.000000  0.810000 ScalE2=  1.000000  1.000000
 IRadAn=      0 IRanWt=     -1 IRanGd=            0 ICorTp=0 IEmpDi=  4
 NAtoms=    2 NActive=    2 NUniq=    1 SFac= 4.00D+00 NAtFMM=   60 NAOKFM=F Big=F
 Integral buffers will be    262144 words long.
 Raffenetti 2 integral format.
 Two-electron integral symmetry is turned on.
 Leave Link  301 at Sun Oct 19 14:19:23 2025, MaxMem=    33554432 cpu:         0.0
 (Enter C:\G09W\l302.exe)
 NPDir=0 NMtPBC=     1 NCelOv=     1 NCel=       1 NClECP=     1 NCelD=      1
         NCelK=      1 NCelE2=     1 NClLst=     1 CellRange=     0.0.
 One-electron integrals computed using PRISM.
 One-electron integral symmetry used in STVInt
 NBasis=    78 RedAO= T EigKep=  1.76D-03  NBF=    20     3     8     8     3    20     8     8
 NBsUse=    78 1.00D-06 EigRej= -1.00D+00 NBFU=    20     3     8     8     3    20     8     8
 Precomputing XC quadrature grid using
 IXCGrd= 4 IRadAn=           0 IRanWt=          -1 IRanGd=           0 AccXCQ= 0.00D+00.
 Defaulting to unpruned grid for atomic number  47.
 Generated NRdTot=       0 NPtTot=           0 NUsed=           0 NTot=          16
 NSgBfM=    48    48    52    52    52 MxSgAt=     2 MxSgA2=     2.
 Leave Link  302 at Sun Oct 19 14:19:23 2025, MaxMem=    33554432 cpu:         0.0
 (Enter C:\G09W\l303.exe)
 DipDrv:  MaxL=1.
 Leave Link  303 at Sun Oct 19 14:19:23 2025, MaxMem=    33554432 cpu:         0.0
 (Enter C:\G09W\l401.exe)
 ExpMin= 3.49D-02 ExpMax= 1.12D+04 ExpMxC= 1.12D+04 IAcc=3 IRadAn=         5 AccDes= 0.00D+00
 Harris functional with IExCor=  402 and IRadAn=       5 diagonalized for initial guess.
 HarFok:  IExCor=  402 AccDes= 0.00D+00 IRadAn=         5 IDoV= 1 UseB2=F ITyADJ=14
 ICtDFT=  3500011 ScaDFX=  1.000000  1.000000  1.000000  1.000000
 Defaulting to unpruned grid for atomic number  47.
 FoFCou: FMM=F IPFlag=           0 FMFlag=      100000 FMFlg1=           0
         NFxFlg=           0 DoJE=T BraDBF=F KetDBF=T FulRan=T
         wScrn=  0.000000 ICntrl=     500 IOpCl=  0 I1Cent=   200000004 NGrid=           0
         NMat0=    1 NMatS0=      1 NMatT0=    0 NMatD0=    1 NMtDS0=    0 NMtDT0=    0
 Petite list used in FoFCou.
 Harris En= -10353.6722166743    
 JPrj=0 DoOrth=F DoCkMO=F.
 Initial guess orbital symmetries:
       Occupied  (SGU) (SGG) (SGG) (SGU) (SGG) (PIG) (PIG) (SGU)
                 (PIU) (PIU) (SGU) (SGG) (SGG) (SGU) (PIG) (PIG)
                 (PIU) (PIU) (SGU) (SGG) (PIG) (PIG) (PIU) (PIU)
                 (DLTU) (DLTG) (DLTU) (DLTG) (SGG) (SGU) (SGG)
                 (SGU) (PIG) (PIG) (PIU) (PIU) (SGU) (SGG) (PIG)
                 (PIG) (PIU) (PIU) (DLTG) (DLTU) (DLTG) (DLTU)
                 (SGG)
       Virtual   (SGU) (SGG) (PIU) (PIU) (PIG) (PIG) (SGU) (SGG)
                 (SGU) (PIU) (PIU) (PIG) (PIG) (SGU) (SGG) (SGG)
                 (SGU) (PIU) (PIU) (PIG) (PIG) (DLTG) (DLTU) (DLTG)
                 (DLTU) (SGG) (SGU) (SGG) (SGU) (SGU) (SGG)
 The electronic state of the initial guess is 1-SGG.
 Leave Link  401 at Sun Oct 19 14:19:23 2025, MaxMem=    33554432 cpu:         0.0
 (Enter C:\G09W\l502.exe)
 Closed shell SCF:
 Using DIIS extrapolation, IDIIS=  1040.
 Integral symmetry usage will be decided dynamically.
 Keep R1 ints in memory in symmetry-blocked form, NReq=5685550.
 IVT=       37753 IEndB=       37753 NGot=    33554432 MDV=    32866241
 LenX=    32866241 LenY=    32859716
 Requested convergence on RMS density matrix=1.00D-08 within 128 cycles.
 Requested convergence on MAX density matrix=1.00D-06.
 Requested convergence on             energy=1.00D-06.
 No special actions if energy rises.
 FoFCou: FMM=F IPFlag=           0 FMFlag=           0 FMFlg1=           0
         NFxFlg=           0 DoJE=F BraDBF=F KetDBF=F FulRan=T
         wScrn=  0.000000 ICntrl=     600 IOpCl=  0 I1Cent=           0 NGrid=           0
         NMat0=    1 NMatS0=   3081 NMatT0=    0 NMatD0=    1 NMtDS0=    0 NMtDT0=    0
 Petite list used in FoFCou.

 Cycle   1  Pass 1  IDiag  1:
 Defaulting to unpruned grid for atomic number  47.
 E= -10352.4226906988    
 DIIS: error= 5.20D-01 at cycle   1 NSaved=   1.
 NSaved= 1 IEnMin= 1 EnMin= -10352.4226906988     IErMin= 1 ErrMin= 5.20D-01
 ErrMax= 5.20D-01  0.00D+00 EMaxC= 1.00D-01 BMatC= 4.21D+00 BMatP= 4.21D+00
 IDIUse=3 WtCom= 0.00D+00 WtEn= 1.00D+00
 Coeff-Com:  0.100D+01
 Coeff-En:   0.100D+01
 Coeff:      0.100D+01
 Gap=     0.027 Goal=   None    Shift=    0.000
 GapD=    0.027 DampG=0.250 DampE=0.125 DampFc=0.1250 IDamp=-1.
 Damping current iteration by 1.25D-01
 RMSDP=1.37D-02 MaxDP=4.17D-01              OVMax= 0.00D+00

 Cycle   2  Pass 1  IDiag  1:
 E= -10352.4463272275     Delta-E=       -0.023636528700 Rises=F Damp=T
 DIIS: error= 4.53D-01 at cycle   2 NSaved=   2.
 NSaved= 2 IEnMin= 2 EnMin= -10352.4463272275     IErMin= 2 ErrMin= 4.53D-01
 ErrMax= 4.53D-01  0.00D+00 EMaxC= 1.00D-01 BMatC= 3.15D+00 BMatP= 4.21D+00
 IDIUse=3 WtCom= 0.00D+00 WtEn= 1.00D+00
 Coeff-Com: -0.616D+01 0.716D+01
 Coeff-En:   0.000D+00 0.100D+01
 Coeff:      0.000D+00 0.100D+01
 Gap=     0.028 Goal=   None    Shift=    0.000
 RMSDP=1.09D-02 MaxDP=3.30D-01 DE=-2.36D-02 OVMax= 0.00D+00

 Cycle   3  Pass 1  IDiag  1:
 E= -10352.5015624320     Delta-E=       -0.055235204558 Rises=F Damp=F
 DIIS: error= 3.51D-02 at cycle   3 NSaved=   3.
 NSaved= 3 IEnMin= 3 EnMin= -10352.5015624320     IErMin= 3 ErrMin= 3.51D-02
 ErrMax= 3.51D-02  0.00D+00 EMaxC= 1.00D-01 BMatC= 9.73D-02 BMatP= 3.15D+00
 IDIUse=3 WtCom= 6.49D-01 WtEn= 3.51D-01
 Large coefficients: NSaved=  3 BigCof=   20.14 CofMax=   10.00 Det=-1.72D-04
 Inversion failed.  Reducing to  2 matrices.
 Coeff-Com:  0.834D-01 0.917D+00
 Coeff-En:   0.208D+00 0.792D+00
 Coeff:      0.127D+00 0.873D+00
 Gap=     0.030 Goal=   None    Shift=    0.000
 RMSDP=6.52D-03 MaxDP=1.72D-01 DE=-5.52D-02 OVMax= 0.00D+00

 Cycle   4  Pass 1  IDiag  1:
 E= -10352.5176691515     Delta-E=       -0.016106719486 Rises=F Damp=F
 DIIS: error= 2.65D-02 at cycle   4 NSaved=   3.
 NSaved= 3 IEnMin= 3 EnMin= -10352.5176691515     IErMin= 3 ErrMin= 2.65D-02
 ErrMax= 2.65D-02  0.00D+00 EMaxC= 1.00D-01 BMatC= 6.09D-02 BMatP= 9.73D-02
 IDIUse=3 WtCom= 7.35D-01 WtEn= 2.65D-01
 Coeff-Com:  0.874D-02 0.447D+00 0.544D+00
 Coeff-En:   0.000D+00 0.399D+00 0.601D+00
 Coeff:      0.642D-02 0.434D+00 0.559D+00
 Gap=     0.029 Goal=   None    Shift=    0.000
 RMSDP=2.94D-03 MaxDP=7.28D-02 DE=-1.61D-02 OVMax= 0.00D+00

 Cycle   5  Pass 1  IDiag  1:
 E= -10352.5487574079     Delta-E=       -0.031088256379 Rises=F Damp=F
 DIIS: error= 9.54D-04 at cycle   5 NSaved=   4.
 NSaved= 4 IEnMin= 4 EnMin= -10352.5487574079     IErMin= 4 ErrMin= 9.54D-04
 ErrMax= 9.54D-04  0.00D+00 EMaxC= 1.00D-01 BMatC= 8.81D-05 BMatP= 6.09D-02
 IDIUse=3 WtCom= 9.90D-01 WtEn= 9.54D-03
 Coeff-Com:  0.258D-03 0.225D-01 0.623D-01 0.915D+00
 Coeff-En:   0.000D+00 0.000D+00 0.000D+00 0.100D+01
 Coeff:      0.255D-03 0.223D-01 0.617D-01 0.916D+00
 Gap=     0.029 Goal=   None    Shift=    0.000
 RMSDP=1.12D-04 MaxDP=2.58D-03 DE=-3.11D-02 OVMax= 0.00D+00

 Cycle   6  Pass 1  IDiag  1:
 E= -10352.5488054244     Delta-E=       -0.000048016482 Rises=F Damp=F
 DIIS: error= 2.70D-05 at cycle   6 NSaved=   5.
 NSaved= 5 IEnMin= 5 EnMin= -10352.5488054244     IErMin= 5 ErrMin= 2.70D-05
 ErrMax= 2.70D-05  0.00D+00 EMaxC= 1.00D-01 BMatC= 7.03D-08 BMatP= 8.81D-05
 IDIUse=1 WtCom= 1.00D+00 WtEn= 0.00D+00
 Coeff-Com:  0.257D-04 0.246D-02 0.620D-02 0.107D+00 0.885D+00
 Coeff:      0.257D-04 0.246D-02 0.620D-02 0.107D+00 0.885D+00
 Gap=     0.029 Goal=   None    Shift=    0.000
 RMSDP=6.59D-06 MaxDP=7.53D-05 DE=-4.80D-05 OVMax= 0.00D+00

 Cycle   7  Pass 1  IDiag  1:
 E= -10352.5488055033     Delta-E=       -0.000000078886 Rises=F Damp=F
 DIIS: error= 4.32D-06 at cycle   7 NSaved=   6.
 NSaved= 6 IEnMin= 6 EnMin= -10352.5488055033     IErMin= 6 ErrMin= 4.32D-06
 ErrMax= 4.32D-06  0.00D+00 EMaxC= 1.00D-01 BMatC= 1.67D-09 BMatP= 7.03D-08
 IDIUse=1 WtCom= 1.00D+00 WtEn= 0.00D+00
 Coeff-Com: -0.261D-05-0.215D-03-0.871D-03-0.832D-02 0.222D+00 0.788D+00
 Coeff:     -0.261D-05-0.215D-03-0.871D-03-0.832D-02 0.222D+00 0.788D+00
 Gap=     0.029 Goal=   None    Shift=    0.000
 RMSDP=1.61D-06 MaxDP=2.01D-05 DE=-7.89D-08 OVMax= 0.00D+00

 Cycle   8  Pass 1  IDiag  1:
 E= -10352.5488055084     Delta-E=       -0.000000005159 Rises=F Damp=F
 DIIS: error= 2.00D-07 at cycle   8 NSaved=   7.
 NSaved= 7 IEnMin= 7 EnMin= -10352.5488055084     IErMin= 7 ErrMin= 2.00D-07
 ErrMax= 2.00D-07  0.00D+00 EMaxC= 1.00D-01 BMatC= 3.66D-12 BMatP= 1.67D-09
 IDIUse=1 WtCom= 1.00D+00 WtEn= 0.00D+00
 Coeff-Com:  0.871D-07 0.771D-05 0.938D-04 0.686D-03-0.396D-01-0.158D+00
 Coeff-Com:  0.120D+01
 Coeff:      0.871D-07 0.771D-05 0.938D-04 0.686D-03-0.396D-01-0.158D+00
 Coeff:      0.120D+01
 Gap=     0.029 Goal=   None    Shift=    0.000
 RMSDP=1.44D-07 MaxDP=1.74D-06 DE=-5.16D-09 OVMax= 0.00D+00

 Cycle   9  Pass 1  IDiag  1:
 E= -10352.5488055083     Delta-E=        0.000000000065 Rises=F Damp=F
 DIIS: error= 9.84D-09 at cycle   9 NSaved=   8.
 NSaved= 8 IEnMin= 7 EnMin= -10352.5488055084     IErMin= 8 ErrMin= 9.84D-09
 ErrMax= 9.84D-09  0.00D+00 EMaxC= 1.00D-01 BMatC= 7.00D-15 BMatP= 3.66D-12
 IDIUse=1 WtCom= 1.00D+00 WtEn= 0.00D+00
 Coeff-Com:  0.137D-07 0.101D-05 0.569D-06-0.243D-04-0.200D-03 0.521D-03
 Coeff-Com: -0.189D-01 0.102D+01
 Coeff:      0.137D-07 0.101D-05 0.569D-06-0.243D-04-0.200D-03 0.521D-03
 Coeff:     -0.189D-01 0.102D+01
 Gap=     0.029 Goal=   None    Shift=    0.000
 RMSDP=6.04D-09 MaxDP=1.01D-07 DE= 6.55D-11 OVMax= 0.00D+00

 SCF Done:  E(RB3LYP) =  -10352.5488055     A.U. after    9 cycles
            NFock=  9  Conv=0.60D-08     -V/T= 2.0046
 KE= 1.030495794943D+04 PE=-2.504619250538D+04 EE= 4.176148940666D+03
 Leave Link  502 at Sun Oct 19 14:19:24 2025, MaxMem=    33554432 cpu:         1.0
 (Enter C:\G09W\l601.exe)
 Copying SCF densities to generalized density rwf, IOpCl= 0 IROHF=0.

 **********************************************************************

            Population analysis using the SCF density.

 **********************************************************************

 Orbital symmetries:
       Occupied  (SGU) (SGG) (SGG) (SGU) (SGG) (PIG) (PIG) (PIU)
                 (PIU) (SGU) (SGU) (SGG) (PIG) (PIG) (PIU) (PIU)
                 (SGG) (SGU) (DLTG) (DLTU) (DLTG) (DLTU) (PIG)
                 (PIG) (PIU) (PIU) (SGU) (SGG) (SGG) (SGU) (PIG)
                 (PIG) (SGG) (PIU) (PIU) (SGU) (SGU) (DLTG) (DLTG)
                 (DLTU) (DLTU) (PIU) (PIU) (PIG) (PIG) (SGG) (SGG)
       Virtual   (SGU) (SGG) (PIU) (PIU) (PIG) (PIG) (SGU) (SGG)
                 (SGU) (PIU) (PIU) (PIG) (PIG) (SGU) (SGG) (SGG)
                 (SGU) (DLTG) (DLTG) (DLTU) (DLTU) (PIU) (PIU)
                 (PIG) (PIG) (SGG) (SGU) (SGG) (SGU) (SGU) (SGG)
 The electronic state is 1-SGG.
 Alpha  occ. eigenvalues -- -898.83676-898.83676-130.55687-130.55687-121.05865
 Alpha  occ. eigenvalues -- -121.05864-121.05864-121.05862-121.05862-121.05862
 Alpha  occ. eigenvalues --  -24.16193 -24.16193 -20.12913 -20.12913 -20.12912
 Alpha  occ. eigenvalues --  -20.12912 -20.12898 -20.12898 -13.63152 -13.63152
 Alpha  occ. eigenvalues --  -13.63152 -13.63152 -13.63141 -13.63141 -13.63141
 Alpha  occ. eigenvalues --  -13.63141 -13.63139 -13.63138  -3.33732  -3.33732
 Alpha  occ. eigenvalues --   -2.06037  -2.06037  -2.06035  -2.06034  -2.06034
 Alpha  occ. eigenvalues --   -2.06030  -0.29478  -0.29460  -0.29460  -0.29460
 Alpha  occ. eigenvalues --   -0.29460  -0.29450  -0.29450  -0.29450  -0.29450
 Alpha  occ. eigenvalues --   -0.29442  -0.14545
 Alpha virt. eigenvalues --   -0.11665  -0.01747  -0.01289  -0.01289   0.00120
 Alpha virt. eigenvalues --    0.00120   0.01869   0.08501   0.11182   0.15421
 Alpha virt. eigenvalues --    0.15421   0.16496   0.16496   0.16726   0.18218
 Alpha virt. eigenvalues --    0.71725   0.72608   1.31257   1.31257   1.31257
 Alpha virt. eigenvalues --    1.31258   1.31308   1.31308   1.31314   1.31314
 Alpha virt. eigenvalues --    1.31420   1.31988   4.44479   4.44930 195.50160
 Alpha virt. eigenvalues --  195.50182
          Condensed to atoms (all electrons):
               1          2
     1  Ag  46.921979   0.078021
     2  Ag   0.078021  46.921979
 Mulliken charges:
               1
     1  Ag   0.000000
     2  Ag   0.000000
 Sum of Mulliken charges =   0.00000
 Mulliken charges with hydrogens summed into heavy atoms:
               1
     1  Ag   0.000000
     2  Ag   0.000000
 Electronic spatial extent (au):  <R**2>=           2630.4204
 Charge=              0.0000 electrons
 Dipole moment (field-independent basis, Debye):
    X=              0.0000    Y=              0.0000    Z=              0.0000  Tot=              0.0000
 Quadrupole moment (field-independent basis, Debye-Ang):
   XX=            -43.6569   YY=            -43.6569   ZZ=            -36.2136
   XY=              0.0000   XZ=              0.0000   YZ=              0.0000
 Traceless Quadrupole moment (field-independent basis, Debye-Ang):
   XX=             -2.4811   YY=             -2.4811   ZZ=              4.9622
   XY=              0.0000   XZ=              0.0000   YZ=              0.0000
 Octapole moment (field-independent basis, Debye-Ang**2):
  XXX=              0.0000  YYY=              0.0000  ZZZ=              0.0000  XYY=              0.0000
  XXY=              0.0000  XXZ=              0.0000  XZZ=              0.0000  YZZ=              0.0000
  YYZ=              0.0000  XYZ=              0.0000
 Hexadecapole moment (field-independent basis, Debye-Ang**3):
 XXXX=            -74.8218 YYYY=            -74.8218 ZZZZ=          -1906.2552 XXXY=              0.0000
 XXXZ=              0.0000 YYYX=              0.0000 YYYZ=              0.0000 ZZZX=              0.0000
 ZZZY=              0.0000 XXYY=            -24.9406 XXZZ=           -342.6018 YYZZ=           -342.6018
 XXYZ=              0.0000 YYXZ=              0.0000 ZZXY=              0.0000
 N-N= 2.125368097773D+02 E-N=-2.504619250231D+04  KE= 1.030495794943D+04
 Symmetry AG   KE= 3.568088490791D+03
 Symmetry B1G  KE= 1.263244297777D+02
 Symmetry B2G  KE= 7.294919300663D+02
 Symmetry B3G  KE= 7.294919300663D+02
 Symmetry AU   KE= 1.263244774818D+02
 Symmetry B1U  KE= 3.566234718484D+03
 Symmetry B2U  KE= 7.295009863804D+02
 Symmetry B3U  KE= 7.295009863804D+02
 No NMR shielding tensors so no spin-rotation constants.
 Leave Link  601 at Sun Oct 19 14:19:24 2025, MaxMem=    33554432 cpu:         0.0
 (Enter C:\G09W\l9999.exe)
 1|1|UNPC-PRO|SP|RB3LYP|3-21G|Ag2|INANI|19-Oct-2025|0||#p b3lyp/3-21g||
 Title Card Required||0,1|Ag,0,0.,0.,5.5|Ag,0,0.,0.,0.||Version=IA32W-G
 09RevD.01|State=1-SGG|HF=-10352.5488055|RMSD=6.038e-009|Dipole=0.,0.,0
 .|Quadrupole=-1.8446441,-1.8446441,3.6892882,0.,0.,0.|PG=D*H [C*(Ag1.A
 g1)]||@


 THE REASON MAN'S BEST FRIEND IS A DOG IS BECAUSE
 HE WAGS HIS TAIL INSTEAD OF HIS TONGUE.
 Job cpu time:       0 days  0 hours  0 minutes  1.0 seconds.
 File lengths (MBytes):  RWF=      5 Int=      0 D2E=      0 Chk=      1 Scr=      1
 Normal termination of Gaussian 09 at Sun Oct 19 14:19:24 2025.
