 Entering Link 1 = C:\G09W\l1.exe PID=     16368.
  
 Copyright (c) 1988,1990,1992,1993,1995,1998,2003,2009,2013,
            Gaussian, Inc.  All Rights Reserved.
  
 This is part of the Gaussian(R) 09 program.  It is based on
 the Gaussian(R) 03 system (copyright 2003, Gaussian, Inc.),
 the Gaussian(R) 98 system (copyright 1998, Gaussian, Inc.),
 the Gaussian(R) 94 system (copyright 1995, Gaussian, Inc.),
 the Gaussian 92(TM) system (copyright 1992, Gaussian, Inc.),
 the Gaussian 90(TM) system (copyright 1990, Gaussian, Inc.),
 the Gaussian 88(TM) system (copyright 1988, Gaussian, Inc.),
 the Gaussian 86(TM) system (copyright 1986, Carnegie Mellon
 University), and the Gaussian 82(TM) system (copyright 1983,
 Carnegie Mellon University). Gaussian is a federally registered
 trademark of Gaussian, Inc.
  
 This software contains proprietary and confidential information,
 including trade secrets, belonging to Gaussian, Inc.
  
 This software is provided under written license and may be
 used, copied, transmitted, or stored only in accord with that
 written license.
  
 The following legend is applicable only to US Government
 contracts under FAR:
  
                    RESTRICTED RIGHTS LEGEND
  
 Use, reproduction and disclosure by the US Government is
 subject to restrictions as set forth in subparagraphs (a)
 and (c) of the Commercial Computer Software - Restricted
 Rights clause in FAR 52.227-19.
  
 Gaussian, Inc.
 340 Quinnipiac St., Bldg. 40, Wallingford CT 06492
  
  
 ---------------------------------------------------------------
 Warning -- This program may not be used in any manner that
 competes with the business of Gaussian, Inc. or will provide
 assistance to any competitor of Gaussian, Inc.  The licensee
 of this program is prohibited from giving any competitor of
 Gaussian, Inc. access to this program.  By using this program,
 the user acknowledges that Gaussian, Inc. is engaged in the
 business of creating and licensing software in the field of
 computational chemistry and represents and warrants to the
 licensee that it is not a competitor of Gaussian, Inc. and that
 it will not use this program in any manner prohibited above.
 ---------------------------------------------------------------
  

 Cite this work as:
 Gaussian 09, Revision D.01,
 M. J. Frisch, G. W. Trucks, H. B. Schlegel, G. E. Scuseria, 
 M. A. Robb, J. R. Cheeseman, G. Scalmani, V. Barone, B. Mennucci, 
 G. A. Petersson, H. Nakatsuji, M. Caricato, X. Li, H. P. Hratchian, 
 A. F. Izmaylov, J. Bloino, G. Zheng, J. L. Sonnenberg, M. Hada, 
 M. Ehara, K. Toyota, R. Fukuda, J. Hasegawa, M. Ishida, T. Nakajima, 
 Y. Honda, O. Kitao, H. Nakai, T. Vreven, J. A. Montgomery, Jr., 
 J. E. Peralta, F. Ogliaro, M. Bearpark, J. J. Heyd, E. Brothers, 
 K. N. Kudin, V. N. Staroverov, T. Keith, R. Kobayashi, J. Normand, 
 K. Raghavachari, A. Rendell, J. C. Burant, S. S. Iyengar, J. Tomasi, 
 M. Cossi, N. Rega, J. M. Millam, M. Klene, J. E. Knox, J. B. Cross, 
 V. Bakken, C. Adamo, J. Jaramillo, R. Gomperts, R. E. Stratmann, 
 O. Yazyev, A. J. Austin, R. Cammi, C. Pomelli, J. W. Ochterski, 
 R. L. Martin, K. Morokuma, V. G. Zakrzewski, G. A. Voth, 
 P. Salvador, J. J. Dannenberg, S. Dapprich, A. D. Daniels, 
 O. Farkas, J. B. Foresman, J. V. Ortiz, J. Cioslowski, 
 and D. J. Fox, Gaussian, Inc., Wallingford CT, 2013.
 
 ******************************************
 Gaussian 09:  IA32W-G09RevD.01 24-Apr-2013
                19-Oct-2025 
 ******************************************
 %chk=C:\Users\inani\Documents\AG\AG.chk
 --------------
 #p b3lyp/3-21g
 --------------
 1/38=1/1;
 2/12=2,17=6,18=5,40=1/2;
 3/5=5,11=2,16=1,25=1,30=1,74=-5/1,2,3;
 4//1;
 5/5=2,38=5/2;
 6/7=2,8=2,9=2,10=2,28=1/1;
 99/5=1,9=1/99;
 Leave Link    1 at Sun Oct 19 14:19:16 2025, MaxMem=           0 cpu:         0.0
 (Enter C:\G09W\l101.exe)
 -------------------
 Title Card Required
 -------------------
 Symbolic Z-matrix:
 Charge =  0 Multiplicity = 1
 Ag                    0.        0.        4.25 
 Ag                    0.        0.        0. 
 
 NAtoms=      2 NQM=        2 NQMF=       0 NMMI=      0 NMMIF=      0
                NMic=       0 NMicF=      0.
                    Isotopes and Nuclear Properties:
 (Nuclear quadrupole moments (NQMom) in fm**2, nuclear magnetic moments (NMagM)
  in nuclear magnetons)

  Atom         1           2
 IAtWgt=         107         107
 AtmWgt= 106.9050900 106.9050900
 NucSpn=           1           1
 AtZEff=   0.0000000   0.0000000
 NQMom=    0.0000000   0.0000000
 NMagM=   -0.1135700  -0.1135700
 AtZNuc=  47.0000000  47.0000000
 Leave Link  101 at Sun Oct 19 14:19:16 2025, MaxMem=    33554432 cpu:         0.0
 (Enter C:\G09W\l202.exe)
                          Input orientation:                          
 ---------------------------------------------------------------------
 Center     Atomic      Atomic             Coordinates (Angstroms)
 Number     Number       Type             X           Y           Z
 ---------------------------------------------------------------------
      1         47           0        0.000000    0.000000    4.250000
      2         47           0        0.000000    0.000000    0.000000
 ---------------------------------------------------------------------
 Stoichiometry    Ag2
 Framework group  D*H[C*(Ag.Ag)]
 Deg. of freedom     1
 Full point group                 D*H     NOp   8
 Largest Abelian subgroup         D2H     NOp   8
 Largest concise Abelian subgroup C2      NOp   2
                         Standard orientation:                         
 ---------------------------------------------------------------------
 Center     Atomic      Atomic             Coordinates (Angstroms)
 Number     Number       Type             X           Y           Z
 ---------------------------------------------------------------------
      1         47           0        0.000000    0.000000    2.125000
      2         47           0        0.000000    0.000000   -2.125000
 ---------------------------------------------------------------------
 Rotational constants (GHZ):      0.0000000      0.5234449      0.5234449
 Leave Link  202 at Sun Oct 19 14:19:16 2025, MaxMem=    33554432 cpu:         0.0
 (Enter C:\G09W\l301.exe)
 Standard basis: 3-21G (6D, 7F)
 Ernie: Thresh=  0.10000D-02 Tol=  0.10000D-05 Strict=F.
 There are    20 symmetry adapted cartesian basis functions of AG  symmetry.
 There are     3 symmetry adapted cartesian basis functions of B1G symmetry.
 There are     8 symmetry adapted cartesian basis functions of B2G symmetry.
 There are     8 symmetry adapted cartesian basis functions of B3G symmetry.
 There are     3 symmetry adapted cartesian basis functions of AU  symmetry.
 There are    20 symmetry adapted cartesian basis functions of B1U symmetry.
 There are     8 symmetry adapted cartesian basis functions of B2U symmetry.
 There are     8 symmetry adapted cartesian basis functions of B3U symmetry.
 There are    20 symmetry adapted basis functions of AG  symmetry.
 There are     3 symmetry adapted basis functions of B1G symmetry.
 There are     8 symmetry adapted basis functions of B2G symmetry.
 There are     8 symmetry adapted basis functions of B3G symmetry.
 There are     3 symmetry adapted basis functions of AU  symmetry.
 There are    20 symmetry adapted basis functions of B1U symmetry.
 There are     8 symmetry adapted basis functions of B2U symmetry.
 There are     8 symmetry adapted basis functions of B3U symmetry.
    78 basis functions,   174 primitive gaussians,    78 cartesian basis functions
    47 alpha electrons       47 beta electrons
       nuclear repulsion energy       275.0476361824 Hartrees.
 IExCor=  402 DFT=T Ex+Corr=B3LYP ExCW=0 ScaHFX=  0.200000
 ScaDFX=  0.800000  0.720000  1.000000  0.810000 ScalE2=  1.000000  1.000000
 IRadAn=      0 IRanWt=     -1 IRanGd=            0 ICorTp=0 IEmpDi=  4
 NAtoms=    2 NActive=    2 NUniq=    1 SFac= 4.00D+00 NAtFMM=   60 NAOKFM=F Big=F
 Integral buffers will be    262144 words long.
 Raffenetti 2 integral format.
 Two-electron integral symmetry is turned on.
 Leave Link  301 at Sun Oct 19 14:19:16 2025, MaxMem=    33554432 cpu:         0.0
 (Enter C:\G09W\l302.exe)
 NPDir=0 NMtPBC=     1 NCelOv=     1 NCel=       1 NClECP=     1 NCelD=      1
         NCelK=      1 NCelE2=     1 NClLst=     1 CellRange=     0.0.
 One-electron integrals computed using PRISM.
 One-electron integral symmetry used in STVInt
 NBasis=    78 RedAO= T EigKep=  1.76D-03  NBF=    20     3     8     8     3    20     8     8
 NBsUse=    78 1.00D-06 EigRej= -1.00D+00 NBFU=    20     3     8     8     3    20     8     8
 Precomputing XC quadrature grid using
 IXCGrd= 4 IRadAn=           0 IRanWt=          -1 IRanGd=           0 AccXCQ= 0.00D+00.
 Defaulting to unpruned grid for atomic number  47.
 Generated NRdTot=       0 NPtTot=           0 NUsed=           0 NTot=          16
 NSgBfM=    53    58    58    58    58 MxSgAt=     2 MxSgA2=     2.
 Leave Link  302 at Sun Oct 19 14:19:16 2025, MaxMem=    33554432 cpu:         0.0
 (Enter C:\G09W\l303.exe)
 DipDrv:  MaxL=1.
 Leave Link  303 at Sun Oct 19 14:19:16 2025, MaxMem=    33554432 cpu:         0.0
 (Enter C:\G09W\l401.exe)
 ExpMin= 3.49D-02 ExpMax= 1.12D+04 ExpMxC= 1.12D+04 IAcc=3 IRadAn=         5 AccDes= 0.00D+00
 Harris functional with IExCor=  402 and IRadAn=       5 diagonalized for initial guess.
 HarFok:  IExCor=  402 AccDes= 0.00D+00 IRadAn=         5 IDoV= 1 UseB2=F ITyADJ=14
 ICtDFT=  3500011 ScaDFX=  1.000000  1.000000  1.000000  1.000000
 Defaulting to unpruned grid for atomic number  47.
 FoFCou: FMM=F IPFlag=           0 FMFlag=      100000 FMFlg1=           0
         NFxFlg=           0 DoJE=T BraDBF=F KetDBF=T FulRan=T
         wScrn=  0.000000 ICntrl=     500 IOpCl=  0 I1Cent=   200000004 NGrid=           0
         NMat0=    1 NMatS0=      1 NMatT0=    0 NMatD0=    1 NMtDS0=    0 NMtDT0=    0
 Petite list used in FoFCou.
 Harris En= -10353.7002052459    
 JPrj=0 DoOrth=F DoCkMO=F.
 Initial guess orbital symmetries:
       Occupied  (SGU) (SGG) (SGU) (SGG) (SGU) (PIG) (PIG) (PIU)
                 (PIU) (SGG) (SGU) (SGG) (SGU) (SGG) (PIG) (PIG)
                 (PIU) (PIU) (SGU) (SGG) (PIG) (PIG) (PIU) (PIU)
                 (DLTU) (DLTU) (DLTG) (DLTG) (SGU) (SGG) (SGU)
                 (SGG) (PIG) (PIG) (PIU) (PIU) (SGG) (SGU) (PIU)
                 (PIU) (PIG) (PIG) (DLTG) (DLTG) (DLTU) (DLTU)
                 (SGG)
       Virtual   (SGU) (SGG) (PIU) (PIU) (PIG) (PIG) (SGU) (SGG)
                 (SGU) (SGG) (PIU) (PIU) (PIG) (PIG) (SGU) (SGG)
                 (SGU) (PIU) (PIU) (SGG) (DLTG) (DLTG) (DLTU) (DLTU)
                 (PIG) (PIG) (SGU) (SGG) (SGU) (SGG) (SGU)
 The electronic state of the initial guess is 1-SGG.
 Leave Link  401 at Sun Oct 19 14:19:17 2025, MaxMem=    33554432 cpu:         1.0
 (Enter C:\G09W\l502.exe)
 Closed shell SCF:
 Using DIIS extrapolation, IDIIS=  1040.
 Integral symmetry usage will be decided dynamically.
 Keep R1 ints in memory in symmetry-blocked form, NReq=5685550.
 IVT=       37753 IEndB=       37753 NGot=    33554432 MDV=    32866241
 LenX=    32866241 LenY=    32859716
 Requested convergence on RMS density matrix=1.00D-08 within 128 cycles.
 Requested convergence on MAX density matrix=1.00D-06.
 Requested convergence on             energy=1.00D-06.
 No special actions if energy rises.
 FoFCou: FMM=F IPFlag=           0 FMFlag=           0 FMFlg1=           0
         NFxFlg=           0 DoJE=F BraDBF=F KetDBF=F FulRan=T
         wScrn=  0.000000 ICntrl=     600 IOpCl=  0 I1Cent=           0 NGrid=           0
         NMat0=    1 NMatS0=   3081 NMatT0=    0 NMatD0=    1 NMtDS0=    0 NMtDT0=    0
 Petite list used in FoFCou.

 Cycle   1  Pass 1  IDiag  1:
 Defaulting to unpruned grid for atomic number  47.
 E= -10352.4348708308    
 DIIS: error= 5.40D-01 at cycle   1 NSaved=   1.
 NSaved= 1 IEnMin= 1 EnMin= -10352.4348708308     IErMin= 1 ErrMin= 5.40D-01
 ErrMax= 5.40D-01  0.00D+00 EMaxC= 1.00D-01 BMatC= 4.22D+00 BMatP= 4.22D+00
 IDIUse=3 WtCom= 0.00D+00 WtEn= 1.00D+00
 Coeff-Com:  0.100D+01
 Coeff-En:   0.100D+01
 Coeff:      0.100D+01
 Gap=     0.043 Goal=   None    Shift=    0.000
 GapD=    0.043 DampG=0.250 DampE=0.125 DampFc=0.1250 IDamp=-1.
 Damping current iteration by 1.25D-01
 RMSDP=1.45D-02 MaxDP=4.25D-01              OVMax= 0.00D+00

 Cycle   2  Pass 1  IDiag  1:
 E= -10352.4606280582     Delta-E=       -0.025757227450 Rises=F Damp=T
 DIIS: error= 4.70D-01 at cycle   2 NSaved=   2.
 NSaved= 2 IEnMin= 2 EnMin= -10352.4606280582     IErMin= 2 ErrMin= 4.70D-01
 ErrMax= 4.70D-01  0.00D+00 EMaxC= 1.00D-01 BMatC= 3.15D+00 BMatP= 4.22D+00
 IDIUse=3 WtCom= 0.00D+00 WtEn= 1.00D+00
 Coeff-Com: -0.612D+01 0.712D+01
 Coeff-En:   0.000D+00 0.100D+01
 Coeff:      0.000D+00 0.100D+01
 Gap=     0.044 Goal=   None    Shift=    0.000
 RMSDP=1.15D-02 MaxDP=3.36D-01 DE=-2.58D-02 OVMax= 0.00D+00

 Cycle   3  Pass 1  IDiag  1:
 E= -10352.5183687695     Delta-E=       -0.057740711334 Rises=F Damp=F
 DIIS: error= 3.64D-02 at cycle   3 NSaved=   3.
 NSaved= 3 IEnMin= 3 EnMin= -10352.5183687695     IErMin= 3 ErrMin= 3.64D-02
 ErrMax= 3.64D-02  0.00D+00 EMaxC= 1.00D-01 BMatC= 1.05D-01 BMatP= 3.15D+00
 IDIUse=3 WtCom= 6.36D-01 WtEn= 3.64D-01
 Large coefficients: NSaved=  3 BigCof=   19.71 CofMax=   10.00 Det=-1.90D-04
 Inversion failed.  Reducing to  2 matrices.
 Coeff-Com:  0.873D-01 0.913D+00
 Coeff-En:   0.225D+00 0.775D+00
 Coeff:      0.137D+00 0.863D+00
 Gap=     0.050 Goal=   None    Shift=    0.000
 RMSDP=7.26D-03 MaxDP=1.76D-01 DE=-5.77D-02 OVMax= 0.00D+00

 Cycle   4  Pass 1  IDiag  1:
 E= -10352.5373283923     Delta-E=       -0.018959622706 Rises=F Damp=F
 DIIS: error= 2.72D-02 at cycle   4 NSaved=   3.
 NSaved= 3 IEnMin= 3 EnMin= -10352.5373283923     IErMin= 3 ErrMin= 2.72D-02
 ErrMax= 2.72D-02  0.00D+00 EMaxC= 1.00D-01 BMatC= 6.47D-02 BMatP= 1.05D-01
 IDIUse=3 WtCom= 7.28D-01 WtEn= 2.72D-01
 Coeff-Com:  0.881D-02 0.444D+00 0.547D+00
 Coeff-En:   0.000D+00 0.392D+00 0.608D+00
 Coeff:      0.641D-02 0.430D+00 0.564D+00
 Gap=     0.049 Goal=   None    Shift=    0.000
 RMSDP=3.39D-03 MaxDP=7.43D-02 DE=-1.90D-02 OVMax= 0.00D+00

 Cycle   5  Pass 1  IDiag  1:
 E= -10352.5706635553     Delta-E=       -0.033335163025 Rises=F Damp=F
 DIIS: error= 1.18D-03 at cycle   5 NSaved=   4.
 NSaved= 4 IEnMin= 4 EnMin= -10352.5706635553     IErMin= 4 ErrMin= 1.18D-03
 ErrMax= 1.18D-03  0.00D+00 EMaxC= 1.00D-01 BMatC= 1.33D-04 BMatP= 6.47D-02
 IDIUse=3 WtCom= 9.88D-01 WtEn= 1.18D-02
 Coeff-Com:  0.647D-03 0.422D-01 0.907D-01 0.866D+00
 Coeff-En:   0.000D+00 0.000D+00 0.000D+00 0.100D+01
 Coeff:      0.640D-03 0.417D-01 0.897D-01 0.868D+00
 Gap=     0.048 Goal=   None    Shift=    0.000
 RMSDP=1.82D-04 MaxDP=2.96D-03 DE=-3.33D-02 OVMax= 0.00D+00

 Cycle   6  Pass 1  IDiag  1:
 E= -10352.5707468094     Delta-E=       -0.000083254112 Rises=F Damp=F
 DIIS: error= 9.23D-05 at cycle   6 NSaved=   5.
 NSaved= 5 IEnMin= 5 EnMin= -10352.5707468094     IErMin= 5 ErrMin= 9.23D-05
 ErrMax= 9.23D-05  0.00D+00 EMaxC= 1.00D-01 BMatC= 5.68D-07 BMatP= 1.33D-04
 IDIUse=1 WtCom= 1.00D+00 WtEn= 0.00D+00
 Coeff-Com:  0.404D-04 0.516D-02 0.169D-01 0.249D+00 0.729D+00
 Coeff:      0.404D-04 0.516D-02 0.169D-01 0.249D+00 0.729D+00
 Gap=     0.049 Goal=   None    Shift=    0.000
 RMSDP=3.21D-05 MaxDP=4.32D-04 DE=-8.33D-05 OVMax= 0.00D+00

 Cycle   7  Pass 1  IDiag  1:
 E= -10352.5707491392     Delta-E=       -0.000002329856 Rises=F Damp=F
 DIIS: error= 6.64D-06 at cycle   7 NSaved=   6.
 NSaved= 6 IEnMin= 6 EnMin= -10352.5707491392     IErMin= 6 ErrMin= 6.64D-06
 ErrMax= 6.64D-06  0.00D+00 EMaxC= 1.00D-01 BMatC= 5.05D-09 BMatP= 5.68D-07
 IDIUse=1 WtCom= 1.00D+00 WtEn= 0.00D+00
 Coeff-Com: -0.677D-05-0.571D-03-0.179D-02-0.195D-01 0.117D-01 0.101D+01
 Coeff:     -0.677D-05-0.571D-03-0.179D-02-0.195D-01 0.117D-01 0.101D+01
 Gap=     0.049 Goal=   None    Shift=    0.000
 RMSDP=3.48D-06 MaxDP=4.62D-05 DE=-2.33D-06 OVMax= 0.00D+00

 Cycle   8  Pass 1  IDiag  1:
 E= -10352.5707491527     Delta-E=       -0.000000013461 Rises=F Damp=F
 DIIS: error= 5.52D-07 at cycle   8 NSaved=   7.
 NSaved= 7 IEnMin= 7 EnMin= -10352.5707491527     IErMin= 7 ErrMin= 5.52D-07
 ErrMax= 5.52D-07  0.00D+00 EMaxC= 1.00D-01 BMatC= 3.21D-11 BMatP= 5.05D-09
 IDIUse=1 WtCom= 1.00D+00 WtEn= 0.00D+00
 Coeff-Com:  0.285D-06 0.269D-04 0.155D-03 0.140D-02-0.495D-02-0.187D+00
 Coeff-Com:  0.119D+01
 Coeff:      0.285D-06 0.269D-04 0.155D-03 0.140D-02-0.495D-02-0.187D+00
 Coeff:      0.119D+01
 Gap=     0.049 Goal=   None    Shift=    0.000
 RMSDP=4.08D-07 MaxDP=5.60D-06 DE=-1.35D-08 OVMax= 0.00D+00

 Cycle   9  Pass 1  IDiag  1:
 E= -10352.5707491528     Delta-E=       -0.000000000116 Rises=F Damp=F
 DIIS: error= 1.82D-08 at cycle   9 NSaved=   8.
 NSaved= 8 IEnMin= 8 EnMin= -10352.5707491528     IErMin= 8 ErrMin= 1.82D-08
 ErrMax= 1.82D-08  0.00D+00 EMaxC= 1.00D-01 BMatC= 3.19D-14 BMatP= 3.21D-11
 IDIUse=1 WtCom= 1.00D+00 WtEn= 0.00D+00
 Coeff-Com:  0.451D-07 0.319D-05 0.370D-05-0.475D-05-0.870D-04 0.594D-03
 Coeff-Com: -0.154D-01 0.101D+01
 Coeff:      0.451D-07 0.319D-05 0.370D-05-0.475D-05-0.870D-04 0.594D-03
 Coeff:     -0.154D-01 0.101D+01
 Gap=     0.049 Goal=   None    Shift=    0.000
 RMSDP=1.71D-08 MaxDP=2.26D-07 DE=-1.16D-10 OVMax= 0.00D+00

 Cycle  10  Pass 1  IDiag  1:
 E= -10352.5707491529     Delta-E=       -0.000000000065 Rises=F Damp=F
 DIIS: error= 3.55D-09 at cycle  10 NSaved=   9.
 NSaved= 9 IEnMin= 9 EnMin= -10352.5707491529     IErMin= 9 ErrMin= 3.55D-09
 ErrMax= 3.55D-09  0.00D+00 EMaxC= 1.00D-01 BMatC= 1.33D-15 BMatP= 3.19D-14
 IDIUse=1 WtCom= 1.00D+00 WtEn= 0.00D+00
 Coeff-Com: -0.248D-08-0.193D-06-0.488D-06 0.192D-05 0.258D-04 0.489D-03
 Coeff-Com: -0.340D-02-0.946D-01 0.110D+01
 Coeff:     -0.248D-08-0.193D-06-0.488D-06 0.192D-05 0.258D-04 0.489D-03
 Coeff:     -0.340D-02-0.946D-01 0.110D+01
 Gap=     0.049 Goal=   None    Shift=    0.000
 RMSDP=1.54D-09 MaxDP=2.05D-08 DE=-6.55D-11 OVMax= 0.00D+00

 SCF Done:  E(RB3LYP) =  -10352.5707492     A.U. after   10 cycles
            NFock= 10  Conv=0.15D-08     -V/T= 2.0046
 KE= 1.030489773464D+04 PE=-2.517137504921D+04 EE= 4.238858929229D+03
 Leave Link  502 at Sun Oct 19 14:19:17 2025, MaxMem=    33554432 cpu:         0.0
 (Enter C:\G09W\l601.exe)
 Copying SCF densities to generalized density rwf, IOpCl= 0 IROHF=0.

 **********************************************************************

            Population analysis using the SCF density.

 **********************************************************************

 Orbital symmetries:
       Occupied  (SGU) (SGG) (SGU) (SGG) (SGU) (PIG) (PIG) (PIU)
                 (PIU) (SGG) (SGU) (SGG) (PIG) (PIG) (PIU) (PIU)
                 (SGU) (SGG) (DLTU) (DLTU) (DLTG) (DLTG) (PIG)
                 (PIG) (PIU) (PIU) (SGU) (SGG) (SGU) (SGG) (SGU)
                 (PIG) (PIG) (PIU) (PIU) (SGG) (SGU) (SGG) (PIU)
                 (PIU) (DLTG) (DLTG) (DLTU) (DLTU) (PIG) (PIG)
                 (SGG)
       Virtual   (SGU) (PIU) (PIU) (SGG) (PIG) (PIG) (SGU) (SGG)
                 (SGU) (SGG) (PIU) (PIU) (PIG) (PIG) (SGU) (SGG)
                 (SGU) (DLTG) (DLTG) (DLTU) (DLTU) (PIU) (PIU)
                 (SGG) (PIG) (PIG) (SGU) (SGG) (SGU) (SGG) (SGU)
 The electronic state is 1-SGG.
 Alpha  occ. eigenvalues -- -898.83509-898.83505-130.55516-130.55516-121.05700
 Alpha  occ. eigenvalues -- -121.05695-121.05695-121.05693-121.05693-121.05687
 Alpha  occ. eigenvalues --  -24.16009 -24.16008 -20.12734 -20.12734 -20.12734
 Alpha  occ. eigenvalues --  -20.12734 -20.12703 -20.12701 -13.62978 -13.62978
 Alpha  occ. eigenvalues --  -13.62978 -13.62978 -13.62954 -13.62954 -13.62954
 Alpha  occ. eigenvalues --  -13.62954 -13.62949 -13.62946  -3.33508  -3.33508
 Alpha  occ. eigenvalues --   -2.05819  -2.05796  -2.05796  -2.05790  -2.05790
 Alpha  occ. eigenvalues --   -2.05790  -0.29249  -0.29207  -0.29184  -0.29184
 Alpha  occ. eigenvalues --   -0.29182  -0.29181  -0.29180  -0.29180  -0.29179
 Alpha  occ. eigenvalues --   -0.29179  -0.15301
 Alpha virt. eigenvalues --   -0.10437  -0.01500  -0.01500  -0.01318   0.01119
 Alpha virt. eigenvalues --    0.01119   0.03799   0.09114   0.12460   0.15500
 Alpha virt. eigenvalues --    0.15839   0.15839   0.16859   0.16859   0.18670
 Alpha virt. eigenvalues --    0.69641   0.76582   1.31574   1.31575   1.31581
 Alpha virt. eigenvalues --    1.31581   1.31642   1.31642   1.31670   1.31830
 Alpha virt. eigenvalues --    1.31830   1.33770   4.43812   4.46765 195.50223
 Alpha virt. eigenvalues --  195.50506
          Condensed to atoms (all electrons):
               1          2
     1  Ag  46.857274   0.142726
     2  Ag   0.142726  46.857274
 Mulliken charges:
               1
     1  Ag   0.000000
     2  Ag   0.000000
 Sum of Mulliken charges =   0.00000
 Mulliken charges with hydrogens summed into heavy atoms:
               1
     1  Ag   0.000000
     2  Ag   0.000000
 Electronic spatial extent (au):  <R**2>=           1606.2519
 Charge=              0.0000 electrons
 Dipole moment (field-independent basis, Debye):
    X=              0.0000    Y=              0.0000    Z=              0.0000  Tot=              0.0000
 Quadrupole moment (field-independent basis, Debye-Ang):
   XX=            -43.5236   YY=            -43.5236   ZZ=            -34.6065
   XY=              0.0000   XZ=              0.0000   YZ=              0.0000
 Traceless Quadrupole moment (field-independent basis, Debye-Ang):
   XX=             -2.9724   YY=             -2.9724   ZZ=              5.9447
   XY=              0.0000   XZ=              0.0000   YZ=              0.0000
 Octapole moment (field-independent basis, Debye-Ang**2):
  XXX=              0.0000  YYY=              0.0000  ZZZ=              0.0000  XYY=              0.0000
  XXY=              0.0000  XXZ=              0.0000  XZZ=              0.0000  YZZ=              0.0000
  YYZ=              0.0000  XYZ=              0.0000
 Hexadecapole moment (field-independent basis, Debye-Ang**3):
 XXXX=            -73.3457 YYYY=            -73.3457 ZZZZ=          -1123.3172 XXXY=              0.0000
 XXXZ=              0.0000 YYYX=              0.0000 YYYZ=              0.0000 ZZZX=              0.0000
 ZZZY=              0.0000 XXYY=            -24.4486 XXZZ=           -208.0512 YYZZ=           -208.0512
 XXYZ=              0.0000 YYXZ=              0.0000 ZZXY=              0.0000
 N-N= 2.750476361824D+02 E-N=-2.517137505111D+04  KE= 1.030489773464D+04
 Symmetry AG   KE= 3.568137822795D+03
 Symmetry B1G  KE= 1.263354516721D+02
 Symmetry B2G  KE= 7.294858880949D+02
 Symmetry B3G  KE= 7.294858880949D+02
 Symmetry AU   KE= 1.263358876166D+02
 Symmetry B1U  KE= 3.566101006773D+03
 Symmetry B2U  KE= 7.295078947972D+02
 Symmetry B3U  KE= 7.295078947972D+02
 No NMR shielding tensors so no spin-rotation constants.
 Leave Link  601 at Sun Oct 19 14:19:17 2025, MaxMem=    33554432 cpu:         0.0
 (Enter C:\G09W\l9999.exe)
 1|1|UNPC-PRO|SP|RB3LYP|3-21G|Ag2|INANI|19-Oct-2025|0||#p b3lyp/3-21g||
 Title Card Required||0,1|Ag,0,0.,0.,4.25|Ag,0,0.,0.,0.||Version=IA32W-
 G09RevD.01|State=1-SGG|HF=-10352.5707492|RMSD=1.543e-009|Dipole=0.,0.,
 0.|Quadrupole=-2.2098736,-2.2098736,4.4197471,0.,0.,0.|PG=D*H [C*(Ag1.
 Ag1)]||@


 THE REASON MAN'S BEST FRIEND IS A DOG IS BECAUSE
 HE WAGS HIS TAIL INSTEAD OF HIS TONGUE.
 Job cpu time:       0 days  0 hours  0 minutes  1.0 seconds.
 File lengths (MBytes):  RWF=      5 Int=      0 D2E=      0 Chk=      1 Scr=      1
 Normal termination of Gaussian 09 at Sun Oct 19 14:19:17 2025.
