 Entering Link 1 = C:\G09W\l1.exe PID=     13072.
  
 Copyright (c) 1988,1990,1992,1993,1995,1998,2003,2009,2013,
            Gaussian, Inc.  All Rights Reserved.
  
 This is part of the Gaussian(R) 09 program.  It is based on
 the Gaussian(R) 03 system (copyright 2003, Gaussian, Inc.),
 the Gaussian(R) 98 system (copyright 1998, Gaussian, Inc.),
 the Gaussian(R) 94 system (copyright 1995, Gaussian, Inc.),
 the Gaussian 92(TM) system (copyright 1992, Gaussian, Inc.),
 the Gaussian 90(TM) system (copyright 1990, Gaussian, Inc.),
 the Gaussian 88(TM) system (copyright 1988, Gaussian, Inc.),
 the Gaussian 86(TM) system (copyright 1986, Carnegie Mellon
 University), and the Gaussian 82(TM) system (copyright 1983,
 Carnegie Mellon University). Gaussian is a federally registered
 trademark of Gaussian, Inc.
  
 This software contains proprietary and confidential information,
 including trade secrets, belonging to Gaussian, Inc.
  
 This software is provided under written license and may be
 used, copied, transmitted, or stored only in accord with that
 written license.
  
 The following legend is applicable only to US Government
 contracts under FAR:
  
                    RESTRICTED RIGHTS LEGEND
  
 Use, reproduction and disclosure by the US Government is
 subject to restrictions as set forth in subparagraphs (a)
 and (c) of the Commercial Computer Software - Restricted
 Rights clause in FAR 52.227-19.
  
 Gaussian, Inc.
 340 Quinnipiac St., Bldg. 40, Wallingford CT 06492
  
  
 ---------------------------------------------------------------
 Warning -- This program may not be used in any manner that
 competes with the business of Gaussian, Inc. or will provide
 assistance to any competitor of Gaussian, Inc.  The licensee
 of this program is prohibited from giving any competitor of
 Gaussian, Inc. access to this program.  By using this program,
 the user acknowledges that Gaussian, Inc. is engaged in the
 business of creating and licensing software in the field of
 computational chemistry and represents and warrants to the
 licensee that it is not a competitor of Gaussian, Inc. and that
 it will not use this program in any manner prohibited above.
 ---------------------------------------------------------------
  

 Cite this work as:
 Gaussian 09, Revision D.01,
 M. J. Frisch, G. W. Trucks, H. B. Schlegel, G. E. Scuseria, 
 M. A. Robb, J. R. Cheeseman, G. Scalmani, V. Barone, B. Mennucci, 
 G. A. Petersson, H. Nakatsuji, M. Caricato, X. Li, H. P. Hratchian, 
 A. F. Izmaylov, J. Bloino, G. Zheng, J. L. Sonnenberg, M. Hada, 
 M. Ehara, K. Toyota, R. Fukuda, J. Hasegawa, M. Ishida, T. Nakajima, 
 Y. Honda, O. Kitao, H. Nakai, T. Vreven, J. A. Montgomery, Jr., 
 J. E. Peralta, F. Ogliaro, M. Bearpark, J. J. Heyd, E. Brothers, 
 K. N. Kudin, V. N. Staroverov, T. Keith, R. Kobayashi, J. Normand, 
 K. Raghavachari, A. Rendell, J. C. Burant, S. S. Iyengar, J. Tomasi, 
 M. Cossi, N. Rega, J. M. Millam, M. Klene, J. E. Knox, J. B. Cross, 
 V. Bakken, C. Adamo, J. Jaramillo, R. Gomperts, R. E. Stratmann, 
 O. Yazyev, A. J. Austin, R. Cammi, C. Pomelli, J. W. Ochterski, 
 R. L. Martin, K. Morokuma, V. G. Zakrzewski, G. A. Voth, 
 P. Salvador, J. J. Dannenberg, S. Dapprich, A. D. Daniels, 
 O. Farkas, J. B. Foresman, J. V. Ortiz, J. Cioslowski, 
 and D. J. Fox, Gaussian, Inc., Wallingford CT, 2013.
 
 ******************************************
 Gaussian 09:  IA32W-G09RevD.01 24-Apr-2013
                19-Oct-2025 
 ******************************************
 %chk=C:\Users\inani\Documents\AG\AG.chk
 --------------
 #p b3lyp/3-21g
 --------------
 1/38=1/1;
 2/12=2,17=6,18=5,40=1/2;
 3/5=5,11=2,16=1,25=1,30=1,74=-5/1,2,3;
 4//1;
 5/5=2,38=5/2;
 6/7=2,8=2,9=2,10=2,28=1/1;
 99/5=1,9=1/99;
 Leave Link    1 at Sun Oct 19 14:19:24 2025, MaxMem=           0 cpu:         0.0
 (Enter C:\G09W\l101.exe)
 -------------------
 Title Card Required
 -------------------
 Symbolic Z-matrix:
 Charge =  0 Multiplicity = 1
 Ag                    0.        0.        5.75 
 Ag                    0.        0.        0. 
 
 NAtoms=      2 NQM=        2 NQMF=       0 NMMI=      0 NMMIF=      0
                NMic=       0 NMicF=      0.
                    Isotopes and Nuclear Properties:
 (Nuclear quadrupole moments (NQMom) in fm**2, nuclear magnetic moments (NMagM)
  in nuclear magnetons)

  Atom         1           2
 IAtWgt=         107         107
 AtmWgt= 106.9050900 106.9050900
 NucSpn=           1           1
 AtZEff=   0.0000000   0.0000000
 NQMom=    0.0000000   0.0000000
 NMagM=   -0.1135700  -0.1135700
 AtZNuc=  47.0000000  47.0000000
 Leave Link  101 at Sun Oct 19 14:19:24 2025, MaxMem=    33554432 cpu:         0.0
 (Enter C:\G09W\l202.exe)
                          Input orientation:                          
 ---------------------------------------------------------------------
 Center     Atomic      Atomic             Coordinates (Angstroms)
 Number     Number       Type             X           Y           Z
 ---------------------------------------------------------------------
      1         47           0        0.000000    0.000000    5.750000
      2         47           0        0.000000    0.000000    0.000000
 ---------------------------------------------------------------------
 Stoichiometry    Ag2
 Framework group  D*H[C*(Ag.Ag)]
 Deg. of freedom     1
 Full point group                 D*H     NOp   8
 Largest Abelian subgroup         D2H     NOp   8
 Largest concise Abelian subgroup C2      NOp   2
                         Standard orientation:                         
 ---------------------------------------------------------------------
 Center     Atomic      Atomic             Coordinates (Angstroms)
 Number     Number       Type             X           Y           Z
 ---------------------------------------------------------------------
      1         47           0        0.000000    0.000000    2.875000
      2         47           0        0.000000    0.000000   -2.875000
 ---------------------------------------------------------------------
 Rotational constants (GHZ):      0.0000000      0.2859652      0.2859652
 Leave Link  202 at Sun Oct 19 14:19:24 2025, MaxMem=    33554432 cpu:         0.0
 (Enter C:\G09W\l301.exe)
 Standard basis: 3-21G (6D, 7F)
 Ernie: Thresh=  0.10000D-02 Tol=  0.10000D-05 Strict=F.
 There are    20 symmetry adapted cartesian basis functions of AG  symmetry.
 There are     3 symmetry adapted cartesian basis functions of B1G symmetry.
 There are     8 symmetry adapted cartesian basis functions of B2G symmetry.
 There are     8 symmetry adapted cartesian basis functions of B3G symmetry.
 There are     3 symmetry adapted cartesian basis functions of AU  symmetry.
 There are    20 symmetry adapted cartesian basis functions of B1U symmetry.
 There are     8 symmetry adapted cartesian basis functions of B2U symmetry.
 There are     8 symmetry adapted cartesian basis functions of B3U symmetry.
 There are    20 symmetry adapted basis functions of AG  symmetry.
 There are     3 symmetry adapted basis functions of B1G symmetry.
 There are     8 symmetry adapted basis functions of B2G symmetry.
 There are     8 symmetry adapted basis functions of B3G symmetry.
 There are     3 symmetry adapted basis functions of AU  symmetry.
 There are    20 symmetry adapted basis functions of B1U symmetry.
 There are     8 symmetry adapted basis functions of B2U symmetry.
 There are     8 symmetry adapted basis functions of B3U symmetry.
    78 basis functions,   174 primitive gaussians,    78 cartesian basis functions
    47 alpha electrons       47 beta electrons
       nuclear repulsion energy       203.2960789174 Hartrees.
 IExCor=  402 DFT=T Ex+Corr=B3LYP ExCW=0 ScaHFX=  0.200000
 ScaDFX=  0.800000  0.720000  1.000000  0.810000 ScalE2=  1.000000  1.000000
 IRadAn=      0 IRanWt=     -1 IRanGd=            0 ICorTp=0 IEmpDi=  4
 NAtoms=    2 NActive=    2 NUniq=    1 SFac= 4.00D+00 NAtFMM=   60 NAOKFM=F Big=F
 Integral buffers will be    262144 words long.
 Raffenetti 2 integral format.
 Two-electron integral symmetry is turned on.
 Leave Link  301 at Sun Oct 19 14:19:24 2025, MaxMem=    33554432 cpu:         0.0
 (Enter C:\G09W\l302.exe)
 NPDir=0 NMtPBC=     1 NCelOv=     1 NCel=       1 NClECP=     1 NCelD=      1
         NCelK=      1 NCelE2=     1 NClLst=     1 CellRange=     0.0.
 One-electron integrals computed using PRISM.
 One-electron integral symmetry used in STVInt
 NBasis=    78 RedAO= T EigKep=  1.76D-03  NBF=    20     3     8     8     3    20     8     8
 NBsUse=    78 1.00D-06 EigRej= -1.00D+00 NBFU=    20     3     8     8     3    20     8     8
 Precomputing XC quadrature grid using
 IXCGrd= 4 IRadAn=           0 IRanWt=          -1 IRanGd=           0 AccXCQ= 0.00D+00.
 Defaulting to unpruned grid for atomic number  47.
 Generated NRdTot=       0 NPtTot=           0 NUsed=           0 NTot=          16
 NSgBfM=    48    48    48    48    52 MxSgAt=     2 MxSgA2=     2.
 Leave Link  302 at Sun Oct 19 14:19:24 2025, MaxMem=    33554432 cpu:         0.0
 (Enter C:\G09W\l303.exe)
 DipDrv:  MaxL=1.
 Leave Link  303 at Sun Oct 19 14:19:24 2025, MaxMem=    33554432 cpu:         0.0
 (Enter C:\G09W\l401.exe)
 ExpMin= 3.49D-02 ExpMax= 1.12D+04 ExpMxC= 1.12D+04 IAcc=3 IRadAn=         5 AccDes= 0.00D+00
 Harris functional with IExCor=  402 and IRadAn=       5 diagonalized for initial guess.
 HarFok:  IExCor=  402 AccDes= 0.00D+00 IRadAn=         5 IDoV= 1 UseB2=F ITyADJ=14
 ICtDFT=  3500011 ScaDFX=  1.000000  1.000000  1.000000  1.000000
 Defaulting to unpruned grid for atomic number  47.
 FoFCou: FMM=F IPFlag=           0 FMFlag=      100000 FMFlg1=           0
         NFxFlg=           0 DoJE=T BraDBF=F KetDBF=T FulRan=T
         wScrn=  0.000000 ICntrl=     500 IOpCl=  0 I1Cent=   200000004 NGrid=           0
         NMat0=    1 NMatS0=      1 NMatT0=    0 NMatD0=    1 NMtDS0=    0 NMtDT0=    0
 Petite list used in FoFCou.
 Harris En= -10353.6693170637    
 JPrj=0 DoOrth=F DoCkMO=F.
 Initial guess orbital symmetries:
       Occupied  (SGU) (SGG) (SGG) (SGU) (SGG) (SGU) (PIG) (PIG)
                 (PIU) (PIU) (SGU) (SGG) (SGG) (SGU) (PIG) (PIG)
                 (PIU) (PIU) (SGU) (SGG) (PIG) (PIG) (PIU) (PIU)
                 (DLTU) (DLTG) (DLTU) (DLTG) (SGG) (SGU) (SGG)
                 (SGU) (PIG) (PIG) (PIU) (PIU) (SGU) (SGG) (PIG)
                 (PIG) (PIU) (PIU) (DLTG) (DLTU) (DLTG) (DLTU)
                 (SGG)
       Virtual   (SGU) (SGG) (PIU) (PIU) (PIG) (PIG) (SGU) (SGG)
                 (SGU) (PIU) (PIU) (PIG) (PIG) (SGU) (SGG) (SGG)
                 (SGU) (PIU) (PIU) (PIG) (PIG) (DLTG) (DLTU) (DLTG)
                 (DLTU) (SGG) (SGU) (SGG) (SGU) (SGU) (SGG)
 The electronic state of the initial guess is 1-SGG.
 Leave Link  401 at Sun Oct 19 14:19:25 2025, MaxMem=    33554432 cpu:         1.0
 (Enter C:\G09W\l502.exe)
 Closed shell SCF:
 Using DIIS extrapolation, IDIIS=  1040.
 Integral symmetry usage will be decided dynamically.
 Keep R1 ints in memory in symmetry-blocked form, NReq=5685550.
 IVT=       37753 IEndB=       37753 NGot=    33554432 MDV=    32866241
 LenX=    32866241 LenY=    32859716
 Requested convergence on RMS density matrix=1.00D-08 within 128 cycles.
 Requested convergence on MAX density matrix=1.00D-06.
 Requested convergence on             energy=1.00D-06.
 No special actions if energy rises.
 FoFCou: FMM=F IPFlag=           0 FMFlag=           0 FMFlg1=           0
         NFxFlg=           0 DoJE=F BraDBF=F KetDBF=F FulRan=T
         wScrn=  0.000000 ICntrl=     600 IOpCl=  0 I1Cent=           0 NGrid=           0
         NMat0=    1 NMatS0=   3081 NMatT0=    0 NMatD0=    1 NMtDS0=    0 NMtDT0=    0
 Petite list used in FoFCou.

 Cycle   1  Pass 1  IDiag  1:
 Defaulting to unpruned grid for atomic number  47.
 E= -10352.4208687570    
 DIIS: error= 5.17D-01 at cycle   1 NSaved=   1.
 NSaved= 1 IEnMin= 1 EnMin= -10352.4208687570     IErMin= 1 ErrMin= 5.17D-01
 ErrMax= 5.17D-01  0.00D+00 EMaxC= 1.00D-01 BMatC= 4.20D+00 BMatP= 4.20D+00
 IDIUse=3 WtCom= 0.00D+00 WtEn= 1.00D+00
 Coeff-Com:  0.100D+01
 Coeff-En:   0.100D+01
 Coeff:      0.100D+01
 Gap=     0.025 Goal=   None    Shift=    0.000
 GapD=    0.025 DampG=0.250 DampE=0.125 DampFc=0.1250 IDamp=-1.
 Damping current iteration by 1.25D-01
 RMSDP=1.37D-02 MaxDP=4.16D-01              OVMax= 0.00D+00

 Cycle   2  Pass 1  IDiag  1:
 E= -10352.4443065716     Delta-E=       -0.023437814600 Rises=F Damp=T
 DIIS: error= 4.50D-01 at cycle   2 NSaved=   2.
 NSaved= 2 IEnMin= 2 EnMin= -10352.4443065716     IErMin= 2 ErrMin= 4.50D-01
 ErrMax= 4.50D-01  0.00D+00 EMaxC= 1.00D-01 BMatC= 3.15D+00 BMatP= 4.20D+00
 IDIUse=3 WtCom= 0.00D+00 WtEn= 1.00D+00
 Coeff-Com: -0.617D+01 0.717D+01
 Coeff-En:   0.000D+00 0.100D+01
 Coeff:      0.000D+00 0.100D+01
 Gap=     0.025 Goal=   None    Shift=    0.000
 RMSDP=1.09D-02 MaxDP=3.30D-01 DE=-2.34D-02 OVMax= 0.00D+00

 Cycle   3  Pass 1  IDiag  1:
 E= -10352.4995226674     Delta-E=       -0.055216095761 Rises=F Damp=F
 DIIS: error= 3.49D-02 at cycle   3 NSaved=   3.
 NSaved= 3 IEnMin= 3 EnMin= -10352.4995226674     IErMin= 3 ErrMin= 3.49D-02
 ErrMax= 3.49D-02  0.00D+00 EMaxC= 1.00D-01 BMatC= 9.62D-02 BMatP= 3.15D+00
 IDIUse=3 WtCom= 6.51D-01 WtEn= 3.49D-01
 Large coefficients: NSaved=  3 BigCof=   20.18 CofMax=   10.00 Det=-1.70D-04
 Inversion failed.  Reducing to  2 matrices.
 Coeff-Com:  0.829D-01 0.917D+00
 Coeff-En:   0.204D+00 0.796D+00
 Coeff:      0.125D+00 0.875D+00
 Gap=     0.027 Goal=   None    Shift=    0.000
 RMSDP=6.45D-03 MaxDP=1.71D-01 DE=-5.52D-02 OVMax= 0.00D+00

 Cycle   4  Pass 1  IDiag  1:
 E= -10352.5152377374     Delta-E=       -0.015715070038 Rises=F Damp=F
 DIIS: error= 2.64D-02 at cycle   4 NSaved=   3.
 NSaved= 3 IEnMin= 3 EnMin= -10352.5152377374     IErMin= 3 ErrMin= 2.64D-02
 ErrMax= 2.64D-02  0.00D+00 EMaxC= 1.00D-01 BMatC= 6.06D-02 BMatP= 9.62D-02
 IDIUse=3 WtCom= 7.36D-01 WtEn= 2.64D-01
 Coeff-Com:  0.873D-02 0.447D+00 0.544D+00
 Coeff-En:   0.000D+00 0.401D+00 0.599D+00
 Coeff:      0.642D-02 0.435D+00 0.558D+00
 Gap=     0.026 Goal=   None    Shift=    0.000
 RMSDP=2.90D-03 MaxDP=7.27D-02 DE=-1.57D-02 OVMax= 0.00D+00

 Cycle   5  Pass 1  IDiag  1:
 E= -10352.5461134649     Delta-E=       -0.030875727525 Rises=F Damp=F
 DIIS: error= 9.33D-04 at cycle   5 NSaved=   4.
 NSaved= 4 IEnMin= 4 EnMin= -10352.5461134649     IErMin= 4 ErrMin= 9.33D-04
 ErrMax= 9.33D-04  0.00D+00 EMaxC= 1.00D-01 BMatC= 8.44D-05 BMatP= 6.06D-02
 IDIUse=3 WtCom= 9.91D-01 WtEn= 9.33D-03
 Coeff-Com:  0.254D-03 0.224D-01 0.615D-01 0.916D+00
 Coeff-En:   0.000D+00 0.000D+00 0.000D+00 0.100D+01
 Coeff:      0.251D-03 0.222D-01 0.609D-01 0.917D+00
 Gap=     0.026 Goal=   None    Shift=    0.000
 RMSDP=1.09D-04 MaxDP=2.54D-03 DE=-3.09D-02 OVMax= 0.00D+00

 Cycle   6  Pass 1  IDiag  1:
 E= -10352.5461593820     Delta-E=       -0.000045917019 Rises=F Damp=F
 DIIS: error= 2.68D-05 at cycle   6 NSaved=   5.
 NSaved= 5 IEnMin= 5 EnMin= -10352.5461593820     IErMin= 5 ErrMin= 2.68D-05
 ErrMax= 2.68D-05  0.00D+00 EMaxC= 1.00D-01 BMatC= 6.23D-08 BMatP= 8.44D-05
 IDIUse=1 WtCom= 1.00D+00 WtEn= 0.00D+00
 Coeff-Com:  0.820D-05 0.800D-03 0.125D-02 0.329D-01 0.965D+00
 Coeff:      0.820D-05 0.800D-03 0.125D-02 0.329D-01 0.965D+00
 Gap=     0.026 Goal=   None    Shift=    0.000
 RMSDP=4.26D-06 MaxDP=7.40D-05 DE=-4.59D-05 OVMax= 0.00D+00

 Cycle   7  Pass 1  IDiag  1:
 E= -10352.5461594241     Delta-E=       -0.000000042095 Rises=F Damp=F
 DIIS: error= 2.92D-06 at cycle   7 NSaved=   6.
 NSaved= 6 IEnMin= 6 EnMin= -10352.5461594241     IErMin= 6 ErrMin= 2.92D-06
 ErrMax= 2.92D-06  0.00D+00 EMaxC= 1.00D-01 BMatC= 5.81D-10 BMatP= 6.23D-08
 IDIUse=1 WtCom= 1.00D+00 WtEn= 0.00D+00
 Coeff-Com: -0.220D-05-0.180D-03-0.790D-03-0.703D-02 0.283D+00 0.725D+00
 Coeff:     -0.220D-05-0.180D-03-0.790D-03-0.703D-02 0.283D+00 0.725D+00
 Gap=     0.026 Goal=   None    Shift=    0.000
 RMSDP=1.03D-06 MaxDP=1.33D-05 DE=-4.21D-08 OVMax= 0.00D+00

 Cycle   8  Pass 1  IDiag  1:
 E= -10352.5461594262     Delta-E=       -0.000000002115 Rises=F Damp=F
 DIIS: error= 1.65D-07 at cycle   8 NSaved=   7.
 NSaved= 7 IEnMin= 7 EnMin= -10352.5461594262     IErMin= 7 ErrMin= 1.65D-07
 ErrMax= 1.65D-07  0.00D+00 EMaxC= 1.00D-01 BMatC= 2.43D-12 BMatP= 5.81D-10
 IDIUse=1 WtCom= 1.00D+00 WtEn= 0.00D+00
 Coeff-Com:  0.569D-07 0.485D-05 0.869D-04 0.567D-03-0.514D-01-0.143D+00
 Coeff-Com:  0.119D+01
 Coeff:      0.569D-07 0.485D-05 0.869D-04 0.567D-03-0.514D-01-0.143D+00
 Coeff:      0.119D+01
 Gap=     0.026 Goal=   None    Shift=    0.000
 RMSDP=1.21D-07 MaxDP=1.29D-06 DE=-2.12D-09 OVMax= 0.00D+00

 Cycle   9  Pass 1  IDiag  1:
 E= -10352.5461594262     Delta-E=        0.000000000009 Rises=F Damp=F
 DIIS: error= 8.76D-09 at cycle   9 NSaved=   8.
 NSaved= 8 IEnMin= 7 EnMin= -10352.5461594262     IErMin= 8 ErrMin= 8.76D-09
 ErrMax= 8.76D-09  0.00D+00 EMaxC= 1.00D-01 BMatC= 5.35D-15 BMatP= 2.43D-12
 IDIUse=1 WtCom= 1.00D+00 WtEn= 0.00D+00
 Coeff-Com:  0.108D-07 0.815D-06 0.559D-06-0.236D-04-0.320D-03-0.606D-05
 Coeff-Com: -0.156D-01 0.102D+01
 Coeff:      0.108D-07 0.815D-06 0.559D-06-0.236D-04-0.320D-03-0.606D-05
 Coeff:     -0.156D-01 0.102D+01
 Gap=     0.026 Goal=   None    Shift=    0.000
 RMSDP=4.57D-09 MaxDP=7.56D-08 DE= 9.09D-12 OVMax= 0.00D+00

 SCF Done:  E(RB3LYP) =  -10352.5461594     A.U. after    9 cycles
            NFock=  9  Conv=0.46D-08     -V/T= 2.0046
 KE= 1.030496698725D+04 PE=-2.502772218695D+04 EE= 4.166912961357D+03
 Leave Link  502 at Sun Oct 19 14:19:25 2025, MaxMem=    33554432 cpu:         0.0
 (Enter C:\G09W\l601.exe)
 Copying SCF densities to generalized density rwf, IOpCl= 0 IROHF=0.

 **********************************************************************

            Population analysis using the SCF density.

 **********************************************************************

 Orbital symmetries:
       Occupied  (SGU) (SGG) (SGG) (SGU) (SGG) (PIG) (PIG) (SGU)
                 (PIU) (PIU) (SGU) (SGG) (PIG) (PIG) (PIU) (PIU)
                 (SGG) (SGU) (DLTG) (DLTG) (DLTU) (DLTU) (PIG)
                 (PIG) (PIU) (PIU) (SGU) (SGG) (SGG) (SGU) (PIG)
                 (PIG) (SGG) (PIU) (PIU) (SGU) (SGU) (DLTG) (DLTG)
                 (DLTU) (DLTU) (PIU) (PIU) (PIG) (PIG) (SGG) (SGG)
       Virtual   (SGU) (SGG) (PIU) (PIU) (PIG) (PIG) (SGU) (SGG)
                 (SGU) (PIU) (PIU) (PIG) (PIG) (SGU) (SGG) (SGG)
                 (SGU) (DLTG) (DLTG) (DLTU) (DLTU) (PIU) (PIU)
                 (PIG) (PIG) (SGG) (SGU) (SGG) (SGU) (SGU) (SGG)
 The electronic state is 1-SGG.
 Alpha  occ. eigenvalues -- -898.83666-898.83665-130.55677-130.55677-121.05855
 Alpha  occ. eigenvalues -- -121.05854-121.05854-121.05852-121.05852-121.05852
 Alpha  occ. eigenvalues --  -24.16184 -24.16184 -20.12903 -20.12903 -20.12903
 Alpha  occ. eigenvalues --  -20.12903 -20.12890 -20.12890 -13.63142 -13.63142
 Alpha  occ. eigenvalues --  -13.63142 -13.63142 -13.63133 -13.63133 -13.63133
 Alpha  occ. eigenvalues --  -13.63133 -13.63131 -13.63130  -3.33726  -3.33726
 Alpha  occ. eigenvalues --   -2.06033  -2.06033  -2.06031  -2.06030  -2.06030
 Alpha  occ. eigenvalues --   -2.06025  -0.29469  -0.29461  -0.29461  -0.29461
 Alpha  occ. eigenvalues --   -0.29461  -0.29451  -0.29451  -0.29450  -0.29450
 Alpha  occ. eigenvalues --   -0.29445  -0.14437
 Alpha virt. eigenvalues --   -0.11812  -0.01768  -0.01243  -0.01243  -0.00014
 Alpha virt. eigenvalues --   -0.00014   0.01580   0.08368   0.10957   0.15329
 Alpha virt. eigenvalues --    0.15329   0.16488   0.16488   0.16963   0.17983
 Alpha virt. eigenvalues --    0.71722   0.72456   1.31247   1.31247   1.31247
 Alpha virt. eigenvalues --    1.31248   1.31288   1.31288   1.31290   1.31290
 Alpha virt. eigenvalues --    1.31387   1.31767   4.44482   4.44864 195.50167
 Alpha virt. eigenvalues --  195.50192
          Condensed to atoms (all electrons):
               1          2
     1  Ag  46.934462   0.065538
     2  Ag   0.065538  46.934462
 Mulliken charges:
               1
     1  Ag   0.000000
     2  Ag   0.000000
 Sum of Mulliken charges =   0.00000
 Mulliken charges with hydrogens summed into heavy atoms:
               1
     1  Ag   0.000000
     2  Ag   0.000000
 Electronic spatial extent (au):  <R**2>=           2866.7702
 Charge=              0.0000 electrons
 Dipole moment (field-independent basis, Debye):
    X=              0.0000    Y=              0.0000    Z=              0.0000  Tot=              0.0000
 Quadrupole moment (field-independent basis, Debye-Ang):
   XX=            -43.6500   YY=            -43.6500   ZZ=            -36.6641
   XY=              0.0000   XZ=              0.0000   YZ=              0.0000
 Traceless Quadrupole moment (field-independent basis, Debye-Ang):
   XX=             -2.3286   YY=             -2.3286   ZZ=              4.6573
   XY=              0.0000   XZ=              0.0000   YZ=              0.0000
 Octapole moment (field-independent basis, Debye-Ang**2):
  XXX=              0.0000  YYY=              0.0000  ZZZ=              0.0000  XYY=              0.0000
  XXY=              0.0000  XXZ=              0.0000  XZZ=              0.0000  YZZ=              0.0000
  YYZ=              0.0000  XYZ=              0.0000
 Hexadecapole moment (field-independent basis, Debye-Ang**3):
 XXXX=            -74.7685 YYYY=            -74.7685 ZZZZ=          -2090.3905 XXXY=              0.0000
 XXXZ=              0.0000 YYYX=              0.0000 YYYZ=              0.0000 ZZZX=              0.0000
 ZZZY=              0.0000 XXYY=            -24.9228 XXZZ=           -373.8098 YYZZ=           -373.8098
 XXYZ=              0.0000 YYXZ=              0.0000 ZZXY=              0.0000
 N-N= 2.032960789174D+02 E-N=-2.502772218403D+04  KE= 1.030496698725D+04
 Symmetry AG   KE= 3.568095150013D+03
 Symmetry B1G  KE= 1.263227476225D+02
 Symmetry B2G  KE= 7.294904260281D+02
 Symmetry B3G  KE= 7.294904260281D+02
 Symmetry AU   KE= 1.263227856794D+02
 Symmetry B1U  KE= 3.566245574751D+03
 Symmetry B2U  KE= 7.294999385646D+02
 Symmetry B3U  KE= 7.294999385646D+02
 No NMR shielding tensors so no spin-rotation constants.
 Leave Link  601 at Sun Oct 19 14:19:25 2025, MaxMem=    33554432 cpu:         0.0
 (Enter C:\G09W\l9999.exe)
 1|1|UNPC-PRO|SP|RB3LYP|3-21G|Ag2|INANI|19-Oct-2025|0||#p b3lyp/3-21g||
 Title Card Required||0,1|Ag,0,0.,0.,5.75|Ag,0,0.,0.,0.||Version=IA32W-
 G09RevD.01|State=1-SGG|HF=-10352.5461594|RMSD=4.566e-009|Dipole=0.,0.,
 0.|Quadrupole=-1.7312839,-1.7312839,3.4625678,0.,0.,0.|PG=D*H [C*(Ag1.
 Ag1)]||@


 THE REASON MAN'S BEST FRIEND IS A DOG IS BECAUSE
 HE WAGS HIS TAIL INSTEAD OF HIS TONGUE.
 Job cpu time:       0 days  0 hours  0 minutes  1.0 seconds.
 File lengths (MBytes):  RWF=      5 Int=      0 D2E=      0 Chk=      1 Scr=      1
 Normal termination of Gaussian 09 at Sun Oct 19 14:19:25 2025.
