 Entering Link 1 = C:\G09W\l1.exe PID=      3884.
  
 Copyright (c) 1988,1990,1992,1993,1995,1998,2003,2009,2013,
            Gaussian, Inc.  All Rights Reserved.
  
 This is part of the Gaussian(R) 09 program.  It is based on
 the Gaussian(R) 03 system (copyright 2003, Gaussian, Inc.),
 the Gaussian(R) 98 system (copyright 1998, Gaussian, Inc.),
 the Gaussian(R) 94 system (copyright 1995, Gaussian, Inc.),
 the Gaussian 92(TM) system (copyright 1992, Gaussian, Inc.),
 the Gaussian 90(TM) system (copyright 1990, Gaussian, Inc.),
 the Gaussian 88(TM) system (copyright 1988, Gaussian, Inc.),
 the Gaussian 86(TM) system (copyright 1986, Carnegie Mellon
 University), and the Gaussian 82(TM) system (copyright 1983,
 Carnegie Mellon University). Gaussian is a federally registered
 trademark of Gaussian, Inc.
  
 This software contains proprietary and confidential information,
 including trade secrets, belonging to Gaussian, Inc.
  
 This software is provided under written license and may be
 used, copied, transmitted, or stored only in accord with that
 written license.
  
 The following legend is applicable only to US Government
 contracts under FAR:
  
                    RESTRICTED RIGHTS LEGEND
  
 Use, reproduction and disclosure by the US Government is
 subject to restrictions as set forth in subparagraphs (a)
 and (c) of the Commercial Computer Software - Restricted
 Rights clause in FAR 52.227-19.
  
 Gaussian, Inc.
 340 Quinnipiac St., Bldg. 40, Wallingford CT 06492
  
  
 ---------------------------------------------------------------
 Warning -- This program may not be used in any manner that
 competes with the business of Gaussian, Inc. or will provide
 assistance to any competitor of Gaussian, Inc.  The licensee
 of this program is prohibited from giving any competitor of
 Gaussian, Inc. access to this program.  By using this program,
 the user acknowledges that Gaussian, Inc. is engaged in the
 business of creating and licensing software in the field of
 computational chemistry and represents and warrants to the
 licensee that it is not a competitor of Gaussian, Inc. and that
 it will not use this program in any manner prohibited above.
 ---------------------------------------------------------------
  

 Cite this work as:
 Gaussian 09, Revision D.01,
 M. J. Frisch, G. W. Trucks, H. B. Schlegel, G. E. Scuseria, 
 M. A. Robb, J. R. Cheeseman, G. Scalmani, V. Barone, B. Mennucci, 
 G. A. Petersson, H. Nakatsuji, M. Caricato, X. Li, H. P. Hratchian, 
 A. F. Izmaylov, J. Bloino, G. Zheng, J. L. Sonnenberg, M. Hada, 
 M. Ehara, K. Toyota, R. Fukuda, J. Hasegawa, M. Ishida, T. Nakajima, 
 Y. Honda, O. Kitao, H. Nakai, T. Vreven, J. A. Montgomery, Jr., 
 J. E. Peralta, F. Ogliaro, M. Bearpark, J. J. Heyd, E. Brothers, 
 K. N. Kudin, V. N. Staroverov, T. Keith, R. Kobayashi, J. Normand, 
 K. Raghavachari, A. Rendell, J. C. Burant, S. S. Iyengar, J. Tomasi, 
 M. Cossi, N. Rega, J. M. Millam, M. Klene, J. E. Knox, J. B. Cross, 
 V. Bakken, C. Adamo, J. Jaramillo, R. Gomperts, R. E. Stratmann, 
 O. Yazyev, A. J. Austin, R. Cammi, C. Pomelli, J. W. Ochterski, 
 R. L. Martin, K. Morokuma, V. G. Zakrzewski, G. A. Voth, 
 P. Salvador, J. J. Dannenberg, S. Dapprich, A. D. Daniels, 
 O. Farkas, J. B. Foresman, J. V. Ortiz, J. Cioslowski, 
 and D. J. Fox, Gaussian, Inc., Wallingford CT, 2013.
 
 ******************************************
 Gaussian 09:  IA32W-G09RevD.01 24-Apr-2013
                19-Oct-2025 
 ******************************************
 %chk=C:\Users\inani\Documents\AG\AG.chk
 --------------
 #p b3lyp/3-21g
 --------------
 1/38=1/1;
 2/12=2,17=6,18=5,40=1/2;
 3/5=5,11=2,16=1,25=1,30=1,74=-5/1,2,3;
 4//1;
 5/5=2,38=5/2;
 6/7=2,8=2,9=2,10=2,28=1/1;
 99/5=1,9=1/99;
 Leave Link    1 at Sun Oct 19 14:19:12 2025, MaxMem=           0 cpu:         0.0
 (Enter C:\G09W\l101.exe)
 -------------------
 Title Card Required
 -------------------
 Symbolic Z-matrix:
 Charge =  0 Multiplicity = 1
 Ag                    0.        0.        3.5 
 Ag                    0.        0.        0. 
 
 NAtoms=      2 NQM=        2 NQMF=       0 NMMI=      0 NMMIF=      0
                NMic=       0 NMicF=      0.
                    Isotopes and Nuclear Properties:
 (Nuclear quadrupole moments (NQMom) in fm**2, nuclear magnetic moments (NMagM)
  in nuclear magnetons)

  Atom         1           2
 IAtWgt=         107         107
 AtmWgt= 106.9050900 106.9050900
 NucSpn=           1           1
 AtZEff=   0.0000000   0.0000000
 NQMom=    0.0000000   0.0000000
 NMagM=   -0.1135700  -0.1135700
 AtZNuc=  47.0000000  47.0000000
 Leave Link  101 at Sun Oct 19 14:19:12 2025, MaxMem=    33554432 cpu:         0.0
 (Enter C:\G09W\l202.exe)
                          Input orientation:                          
 ---------------------------------------------------------------------
 Center     Atomic      Atomic             Coordinates (Angstroms)
 Number     Number       Type             X           Y           Z
 ---------------------------------------------------------------------
      1         47           0        0.000000    0.000000    3.500000
      2         47           0        0.000000    0.000000    0.000000
 ---------------------------------------------------------------------
 Stoichiometry    Ag2
 Framework group  D*H[C*(Ag.Ag)]
 Deg. of freedom     1
 Full point group                 D*H     NOp   8
 Largest Abelian subgroup         D2H     NOp   8
 Largest concise Abelian subgroup C2      NOp   2
                         Standard orientation:                         
 ---------------------------------------------------------------------
 Center     Atomic      Atomic             Coordinates (Angstroms)
 Number     Number       Type             X           Y           Z
 ---------------------------------------------------------------------
      1         47           0        0.000000    0.000000    1.750000
      2         47           0        0.000000    0.000000   -1.750000
 ---------------------------------------------------------------------
 Rotational constants (GHZ):      0.0000000      0.7718141      0.7718141
 Leave Link  202 at Sun Oct 19 14:19:12 2025, MaxMem=    33554432 cpu:         0.0
 (Enter C:\G09W\l301.exe)
 Standard basis: 3-21G (6D, 7F)
 Ernie: Thresh=  0.10000D-02 Tol=  0.10000D-05 Strict=F.
 There are    20 symmetry adapted cartesian basis functions of AG  symmetry.
 There are     3 symmetry adapted cartesian basis functions of B1G symmetry.
 There are     8 symmetry adapted cartesian basis functions of B2G symmetry.
 There are     8 symmetry adapted cartesian basis functions of B3G symmetry.
 There are     3 symmetry adapted cartesian basis functions of AU  symmetry.
 There are    20 symmetry adapted cartesian basis functions of B1U symmetry.
 There are     8 symmetry adapted cartesian basis functions of B2U symmetry.
 There are     8 symmetry adapted cartesian basis functions of B3U symmetry.
 There are    20 symmetry adapted basis functions of AG  symmetry.
 There are     3 symmetry adapted basis functions of B1G symmetry.
 There are     8 symmetry adapted basis functions of B2G symmetry.
 There are     8 symmetry adapted basis functions of B3G symmetry.
 There are     3 symmetry adapted basis functions of AU  symmetry.
 There are    20 symmetry adapted basis functions of B1U symmetry.
 There are     8 symmetry adapted basis functions of B2U symmetry.
 There are     8 symmetry adapted basis functions of B3U symmetry.
    78 basis functions,   174 primitive gaussians,    78 cartesian basis functions
    47 alpha electrons       47 beta electrons
       nuclear repulsion energy       333.9864153644 Hartrees.
 IExCor=  402 DFT=T Ex+Corr=B3LYP ExCW=0 ScaHFX=  0.200000
 ScaDFX=  0.800000  0.720000  1.000000  0.810000 ScalE2=  1.000000  1.000000
 IRadAn=      0 IRanWt=     -1 IRanGd=            0 ICorTp=0 IEmpDi=  4
 NAtoms=    2 NActive=    2 NUniq=    1 SFac= 4.00D+00 NAtFMM=   60 NAOKFM=F Big=F
 Integral buffers will be    262144 words long.
 Raffenetti 2 integral format.
 Two-electron integral symmetry is turned on.
 Leave Link  301 at Sun Oct 19 14:19:12 2025, MaxMem=    33554432 cpu:         0.0
 (Enter C:\G09W\l302.exe)
 NPDir=0 NMtPBC=     1 NCelOv=     1 NCel=       1 NClECP=     1 NCelD=      1
         NCelK=      1 NCelE2=     1 NClLst=     1 CellRange=     0.0.
 One-electron integrals computed using PRISM.
 One-electron integral symmetry used in STVInt
 NBasis=    78 RedAO= T EigKep=  1.76D-03  NBF=    20     3     8     8     3    20     8     8
 NBsUse=    78 1.00D-06 EigRej= -1.00D+00 NBFU=    20     3     8     8     3    20     8     8
 Precomputing XC quadrature grid using
 IXCGrd= 4 IRadAn=           0 IRanWt=          -1 IRanGd=           0 AccXCQ= 0.00D+00.
 Defaulting to unpruned grid for atomic number  47.
 Generated NRdTot=       0 NPtTot=           0 NUsed=           0 NTot=          16
 NSgBfM=    58    58    58    62    62 MxSgAt=     2 MxSgA2=     2.
 Leave Link  302 at Sun Oct 19 14:19:12 2025, MaxMem=    33554432 cpu:         0.0
 (Enter C:\G09W\l303.exe)
 DipDrv:  MaxL=1.
 Leave Link  303 at Sun Oct 19 14:19:12 2025, MaxMem=    33554432 cpu:         0.0
 (Enter C:\G09W\l401.exe)
 ExpMin= 3.49D-02 ExpMax= 1.12D+04 ExpMxC= 1.12D+04 IAcc=3 IRadAn=         5 AccDes= 0.00D+00
 Harris functional with IExCor=  402 and IRadAn=       5 diagonalized for initial guess.
 HarFok:  IExCor=  402 AccDes= 0.00D+00 IRadAn=         5 IDoV= 1 UseB2=F ITyADJ=14
 ICtDFT=  3500011 ScaDFX=  1.000000  1.000000  1.000000  1.000000
 Defaulting to unpruned grid for atomic number  47.
 FoFCou: FMM=F IPFlag=           0 FMFlag=      100000 FMFlg1=           0
         NFxFlg=           0 DoJE=T BraDBF=F KetDBF=T FulRan=T
         wScrn=  0.000000 ICntrl=     500 IOpCl=  0 I1Cent=   200000004 NGrid=           0
         NMat0=    1 NMatS0=      1 NMatT0=    0 NMatD0=    1 NMtDS0=    0 NMtDT0=    0
 Petite list used in FoFCou.
 Harris En= -10353.7326853082    
 JPrj=0 DoOrth=F DoCkMO=F.
 Initial guess orbital symmetries:
       Occupied  (SGU) (SGG) (SGG) (SGU) (SGU) (PIG) (PIG) (SGG)
                 (PIU) (PIU) (SGU) (SGG) (SGU) (SGG) (PIG) (PIG)
                 (PIU) (PIU) (SGU) (SGG) (PIG) (PIG) (PIU) (PIU)
                 (DLTU) (DLTU) (DLTG) (DLTG) (SGG) (SGU) (SGU)
                 (SGG) (PIG) (PIG) (PIU) (PIU) (SGG) (PIU) (PIU)
                 (SGU) (PIG) (PIG) (DLTG) (DLTG) (DLTU) (DLTU)
                 (SGG)
       Virtual   (SGU) (PIU) (PIU) (SGG) (PIG) (PIG) (SGU) (SGG)
                 (SGU) (SGG) (PIU) (PIU) (PIG) (PIG) (SGU) (SGG)
                 (SGU) (SGG) (PIU) (PIU) (DLTG) (DLTG) (DLTU) (DLTU)
                 (PIG) (PIG) (SGU) (SGG) (SGU) (SGU) (SGG)
 The electronic state of the initial guess is 1-SGG.
 Leave Link  401 at Sun Oct 19 14:19:13 2025, MaxMem=    33554432 cpu:         1.0
 (Enter C:\G09W\l502.exe)
 Closed shell SCF:
 Using DIIS extrapolation, IDIIS=  1040.
 Integral symmetry usage will be decided dynamically.
 Keep R1 ints in memory in symmetry-blocked form, NReq=5685550.
 IVT=       37753 IEndB=       37753 NGot=    33554432 MDV=    32866241
 LenX=    32866241 LenY=    32859716
 Requested convergence on RMS density matrix=1.00D-08 within 128 cycles.
 Requested convergence on MAX density matrix=1.00D-06.
 Requested convergence on             energy=1.00D-06.
 No special actions if energy rises.
 FoFCou: FMM=F IPFlag=           0 FMFlag=           0 FMFlg1=           0
         NFxFlg=           0 DoJE=F BraDBF=F KetDBF=F FulRan=T
         wScrn=  0.000000 ICntrl=     600 IOpCl=  0 I1Cent=           0 NGrid=           0
         NMat0=    1 NMatS0=   3081 NMatT0=    0 NMatD0=    1 NMtDS0=    0 NMtDT0=    0
 Petite list used in FoFCou.

 Cycle   1  Pass 1  IDiag  1:
 Defaulting to unpruned grid for atomic number  47.
 E= -10352.4493808713    
 DIIS: error= 5.40D-01 at cycle   1 NSaved=   1.
 NSaved= 1 IEnMin= 1 EnMin= -10352.4493808713     IErMin= 1 ErrMin= 5.40D-01
 ErrMax= 5.40D-01  0.00D+00 EMaxC= 1.00D-01 BMatC= 4.24D+00 BMatP= 4.24D+00
 IDIUse=3 WtCom= 0.00D+00 WtEn= 1.00D+00
 Coeff-Com:  0.100D+01
 Coeff-En:   0.100D+01
 Coeff:      0.100D+01
 Gap=     0.062 Goal=   None    Shift=    0.000
 GapD=    0.062 DampG=0.500 DampE=0.125 DampFc=0.1250 IDamp=-1.
 Damping current iteration by 1.25D-01
 RMSDP=1.52D-02 MaxDP=4.34D-01              OVMax= 0.00D+00

 Cycle   2  Pass 1  IDiag  1:
 E= -10352.4777161858     Delta-E=       -0.028335314493 Rises=F Damp=T
 DIIS: error= 4.70D-01 at cycle   2 NSaved=   2.
 NSaved= 2 IEnMin= 2 EnMin= -10352.4777161858     IErMin= 2 ErrMin= 4.70D-01
 ErrMax= 4.70D-01  0.00D+00 EMaxC= 1.00D-01 BMatC= 3.17D+00 BMatP= 4.24D+00
 IDIUse=3 WtCom= 0.00D+00 WtEn= 1.00D+00
 Coeff-Com: -0.606D+01 0.706D+01
 Coeff-En:   0.000D+00 0.100D+01
 Coeff:      0.000D+00 0.100D+01
 Gap=     0.060 Goal=   None    Shift=    0.000
 RMSDP=1.20D-02 MaxDP=3.42D-01 DE=-2.83D-02 OVMax= 0.00D+00

 Cycle   3  Pass 1  IDiag  1:
 E= -10352.5378734492     Delta-E=       -0.060157263368 Rises=F Damp=F
 DIIS: error= 3.80D-02 at cycle   3 NSaved=   3.
 NSaved= 3 IEnMin= 3 EnMin= -10352.5378734492     IErMin= 3 ErrMin= 3.80D-02
 ErrMax= 3.80D-02  0.00D+00 EMaxC= 1.00D-01 BMatC= 1.17D-01 BMatP= 3.17D+00
 IDIUse=3 WtCom= 6.20D-01 WtEn= 3.80D-01
 Large coefficients: NSaved=  3 BigCof=   19.09 CofMax=   10.00 Det=-2.17D-04
 Inversion failed.  Reducing to  2 matrices.
 Coeff-Com:  0.925D-01 0.908D+00
 Coeff-En:   0.246D+00 0.754D+00
 Coeff:      0.151D+00 0.849D+00
 Gap=     0.069 Goal=   None    Shift=    0.000
 RMSDP=8.16D-03 MaxDP=1.82D-01 DE=-6.02D-02 OVMax= 0.00D+00

 Cycle   4  Pass 1  IDiag  1:
 E= -10352.5596916172     Delta-E=       -0.021818167983 Rises=F Damp=F
 DIIS: error= 2.84D-02 at cycle   4 NSaved=   3.
 NSaved= 3 IEnMin= 3 EnMin= -10352.5596916172     IErMin= 3 ErrMin= 2.84D-02
 ErrMax= 2.84D-02  0.00D+00 EMaxC= 1.00D-01 BMatC= 7.12D-02 BMatP= 1.17D-01
 IDIUse=3 WtCom= 7.16D-01 WtEn= 2.84D-01
 Coeff-Com:  0.902D-02 0.443D+00 0.548D+00
 Coeff-En:   0.000D+00 0.390D+00 0.610D+00
 Coeff:      0.646D-02 0.428D+00 0.566D+00
 Gap=     0.070 Goal=   None    Shift=    0.000
 RMSDP=4.00D-03 MaxDP=7.66D-02 DE=-2.18D-02 OVMax= 0.00D+00

 Cycle   5  Pass 1  IDiag  1:
 E= -10352.5968405354     Delta-E=       -0.037148918223 Rises=F Damp=F
 DIIS: error= 1.47D-03 at cycle   5 NSaved=   4.
 NSaved= 4 IEnMin= 4 EnMin= -10352.5968405354     IErMin= 4 ErrMin= 1.47D-03
 ErrMax= 1.47D-03  0.00D+00 EMaxC= 1.00D-01 BMatC= 2.14D-04 BMatP= 7.12D-02
 IDIUse=3 WtCom= 9.85D-01 WtEn= 1.47D-02
 Coeff-Com:  0.107D-02 0.641D-01 0.122D+00 0.813D+00
 Coeff-En:   0.000D+00 0.000D+00 0.000D+00 0.100D+01
 Coeff:      0.106D-02 0.631D-01 0.121D+00 0.815D+00
 Gap=     0.068 Goal=   None    Shift=    0.000
 RMSDP=2.79D-04 MaxDP=4.25D-03 DE=-3.71D-02 OVMax= 0.00D+00

 Cycle   6  Pass 1  IDiag  1:
 E= -10352.5969945147     Delta-E=       -0.000153979330 Rises=F Damp=F
 DIIS: error= 1.40D-04 at cycle   6 NSaved=   5.
 NSaved= 5 IEnMin= 5 EnMin= -10352.5969945147     IErMin= 5 ErrMin= 1.40D-04
 ErrMax= 1.40D-04  0.00D+00 EMaxC= 1.00D-01 BMatC= 1.20D-06 BMatP= 2.14D-04
 IDIUse=3 WtCom= 9.99D-01 WtEn= 1.40D-03
 Coeff-Com:  0.171D-05 0.389D-02 0.159D-01 0.218D+00 0.762D+00
 Coeff-En:   0.000D+00 0.000D+00 0.000D+00 0.000D+00 0.100D+01
 Coeff:      0.171D-05 0.388D-02 0.158D-01 0.218D+00 0.762D+00
 Gap=     0.068 Goal=   None    Shift=    0.000
 RMSDP=4.57D-05 MaxDP=5.96D-04 DE=-1.54D-04 OVMax= 0.00D+00

 Cycle   7  Pass 1  IDiag  1:
 E= -10352.5969992114     Delta-E=       -0.000004696689 Rises=F Damp=F
 DIIS: error= 8.09D-06 at cycle   7 NSaved=   6.
 NSaved= 6 IEnMin= 6 EnMin= -10352.5969992114     IErMin= 6 ErrMin= 8.09D-06
 ErrMax= 8.09D-06  0.00D+00 EMaxC= 1.00D-01 BMatC= 7.43D-09 BMatP= 1.20D-06
 IDIUse=1 WtCom= 1.00D+00 WtEn= 0.00D+00
 Coeff-Com: -0.847D-05-0.736D-03-0.218D-02-0.203D-01-0.200D-02 0.103D+01
 Coeff:     -0.847D-05-0.736D-03-0.218D-02-0.203D-01-0.200D-02 0.103D+01
 Gap=     0.068 Goal=   None    Shift=    0.000
 RMSDP=5.27D-06 MaxDP=8.43D-05 DE=-4.70D-06 OVMax= 0.00D+00

 Cycle   8  Pass 1  IDiag  1:
 E= -10352.5969992379     Delta-E=       -0.000000026484 Rises=F Damp=F
 DIIS: error= 8.83D-07 at cycle   8 NSaved=   7.
 NSaved= 7 IEnMin= 7 EnMin= -10352.5969992379     IErMin= 7 ErrMin= 8.83D-07
 ErrMax= 8.83D-07  0.00D+00 EMaxC= 1.00D-01 BMatC= 9.01D-11 BMatP= 7.43D-09
 IDIUse=1 WtCom= 1.00D+00 WtEn= 0.00D+00
 Coeff-Com:  0.295D-06 0.336D-04 0.183D-03 0.140D-02-0.335D-02-0.186D+00
 Coeff-Com:  0.119D+01
 Coeff:      0.295D-06 0.336D-04 0.183D-03 0.140D-02-0.335D-02-0.186D+00
 Coeff:      0.119D+01
 Gap=     0.068 Goal=   None    Shift=    0.000
 RMSDP=6.85D-07 MaxDP=9.81D-06 DE=-2.65D-08 OVMax= 0.00D+00

 Cycle   9  Pass 1  IDiag  1:
 E= -10352.5969992384     Delta-E=       -0.000000000509 Rises=F Damp=F
 DIIS: error= 3.79D-08 at cycle   9 NSaved=   8.
 NSaved= 8 IEnMin= 8 EnMin= -10352.5969992384     IErMin= 8 ErrMin= 3.79D-08
 ErrMax= 3.79D-08  0.00D+00 EMaxC= 1.00D-01 BMatC= 1.15D-13 BMatP= 9.01D-11
 IDIUse=1 WtCom= 1.00D+00 WtEn= 0.00D+00
 Coeff-Com:  0.826D-07 0.553D-05 0.683D-05 0.341D-05-0.980D-05 0.417D-03
 Coeff-Com: -0.233D-01 0.102D+01
 Coeff:      0.826D-07 0.553D-05 0.683D-05 0.341D-05-0.980D-05 0.417D-03
 Coeff:     -0.233D-01 0.102D+01
 Gap=     0.068 Goal=   None    Shift=    0.000
 RMSDP=3.24D-08 MaxDP=4.03D-07 DE=-5.09D-10 OVMax= 0.00D+00

 Cycle  10  Pass 1  IDiag  1:
 E= -10352.5969992382     Delta-E=        0.000000000175 Rises=F Damp=F
 DIIS: error= 7.98D-09 at cycle  10 NSaved=   9.
 NSaved= 9 IEnMin= 8 EnMin= -10352.5969992384     IErMin= 9 ErrMin= 7.98D-09
 ErrMax= 7.98D-09  0.00D+00 EMaxC= 1.00D-01 BMatC= 6.64D-15 BMatP= 1.15D-13
 IDIUse=1 WtCom= 1.00D+00 WtEn= 0.00D+00
 Coeff-Com: -0.354D-08-0.270D-06-0.729D-06 0.354D-05 0.287D-04 0.593D-03
 Coeff-Com: -0.373D-02-0.969D-01 0.110D+01
 Coeff:     -0.354D-08-0.270D-06-0.729D-06 0.354D-05 0.287D-04 0.593D-03
 Coeff:     -0.373D-02-0.969D-01 0.110D+01
 Gap=     0.068 Goal=   None    Shift=    0.000
 RMSDP=2.74D-09 MaxDP=3.00D-08 DE= 1.75D-10 OVMax= 0.00D+00

 SCF Done:  E(RB3LYP) =  -10352.5969992     A.U. after   10 cycles
            NFock= 10  Conv=0.27D-08     -V/T= 2.0046
 KE= 1.030477729232D+04 PE=-2.528920545540D+04 EE= 4.297844748475D+03
 Leave Link  502 at Sun Oct 19 14:19:13 2025, MaxMem=    33554432 cpu:         0.0
 (Enter C:\G09W\l601.exe)
 Copying SCF densities to generalized density rwf, IOpCl= 0 IROHF=0.

 **********************************************************************

            Population analysis using the SCF density.

 **********************************************************************

 Orbital symmetries:
       Occupied  (SGU) (SGG) (SGG) (SGU) (SGU) (SGG) (PIG) (PIG)
                 (PIU) (PIU) (SGU) (SGG) (PIG) (PIG) (PIU) (PIU)
                 (SGU) (SGG) (DLTU) (DLTU) (DLTG) (DLTG) (SGU)
                 (PIG) (PIG) (PIU) (PIU) (SGG) (SGG) (SGU) (SGG)
                 (SGU) (PIG) (PIG) (PIU) (PIU) (SGG) (PIU) (PIU)
                 (DLTG) (DLTG) (DLTU) (DLTU) (PIG) (PIG) (SGU)
                 (SGG)
       Virtual   (SGU) (PIU) (PIU) (SGG) (PIG) (PIG) (SGU) (SGG)
                 (SGU) (SGG) (PIU) (PIU) (PIG) (PIG) (SGU) (SGG)
                 (SGU) (SGG) (PIU) (PIU) (DLTG) (DLTG) (DLTU) (DLTU)
                 (PIG) (PIG) (SGU) (SGG) (SGU) (SGU) (SGG)
 The electronic state is 1-SGG.
 Alpha  occ. eigenvalues -- -898.83576-898.83576-130.55579-130.55579-121.05787
 Alpha  occ. eigenvalues -- -121.05764-121.05757-121.05757-121.05751-121.05751
 Alpha  occ. eigenvalues --  -24.16021 -24.16021 -20.12738 -20.12738 -20.12737
 Alpha  occ. eigenvalues --  -20.12737 -20.12735 -20.12733 -13.62986 -13.62986
 Alpha  occ. eigenvalues --  -13.62986 -13.62986 -13.62985 -13.62977 -13.62977
 Alpha  occ. eigenvalues --  -13.62975 -13.62975 -13.62972  -3.33413  -3.33412
 Alpha  occ. eigenvalues --   -2.05750  -2.05726  -2.05639  -2.05639  -2.05630
 Alpha  occ. eigenvalues --   -2.05630  -0.29575  -0.29126  -0.29126  -0.28948
 Alpha  occ. eigenvalues --   -0.28948  -0.28928  -0.28928  -0.28907  -0.28907
 Alpha  occ. eigenvalues --   -0.28828  -0.16080
 Alpha virt. eigenvalues --   -0.09282  -0.01645  -0.01645  -0.00771   0.02022
 Alpha virt. eigenvalues --    0.02022   0.05241   0.09049   0.13366   0.13919
 Alpha virt. eigenvalues --    0.15488   0.15488   0.17714   0.17714   0.22868
 Alpha virt. eigenvalues --    0.72217   0.77021   1.30253   1.30855   1.30855
 Alpha virt. eigenvalues --    1.31797   1.31798   1.31960   1.31961   1.33357
 Alpha virt. eigenvalues --    1.33357   1.42344   4.45995   4.46485 195.50366
 Alpha virt. eigenvalues --  195.50431
          Condensed to atoms (all electrons):
               1          2
     1  Ag  46.832563   0.167437
     2  Ag   0.167437  46.832563
 Mulliken charges:
               1
     1  Ag   0.000000
     2  Ag   0.000000
 Sum of Mulliken charges =   0.00000
 Mulliken charges with hydrogens summed into heavy atoms:
               1
     1  Ag   0.000000
     2  Ag   0.000000
 Electronic spatial extent (au):  <R**2>=           1118.0356
 Charge=              0.0000 electrons
 Dipole moment (field-independent basis, Debye):
    X=              0.0000    Y=              0.0000    Z=              0.0000  Tot=              0.0000
 Quadrupole moment (field-independent basis, Debye-Ang):
   XX=            -43.3469   YY=            -43.3469   ZZ=            -34.3798
   XY=              0.0000   XZ=              0.0000   YZ=              0.0000
 Traceless Quadrupole moment (field-independent basis, Debye-Ang):
   XX=             -2.9891   YY=             -2.9891   ZZ=              5.9781
   XY=              0.0000   XZ=              0.0000   YZ=              0.0000
 Octapole moment (field-independent basis, Debye-Ang**2):
  XXX=              0.0000  YYY=              0.0000  ZZZ=              0.0000  XYY=              0.0000
  XXY=              0.0000  XXZ=              0.0000  XZZ=              0.0000  YZZ=              0.0000
  YYZ=              0.0000  XYZ=              0.0000
 Hexadecapole moment (field-independent basis, Debye-Ang**3):
 XXXX=            -71.0113 YYYY=            -71.0113 ZZZZ=           -761.3253 XXXY=              0.0000
 XXXZ=              0.0000 YYYX=              0.0000 YYYZ=              0.0000 ZZZX=              0.0000
 ZZZY=              0.0000 XXYY=            -23.6704 XXZZ=           -144.5743 YYZZ=           -144.5743
 XXYZ=              0.0000 YYXZ=              0.0000 ZZXY=              0.0000
 N-N= 3.339864153644D+02 E-N=-2.528920545966D+04  KE= 1.030477729232D+04
 Symmetry AG   KE= 3.567956633879D+03
 Symmetry B1G  KE= 1.263537041297D+02
 Symmetry B2G  KE= 7.295136923058D+02
 Symmetry B3G  KE= 7.295136923058D+02
 Symmetry AU   KE= 1.263626767358D+02
 Symmetry B1U  KE= 3.566126484354D+03
 Symmetry B2U  KE= 7.294752043059D+02
 Symmetry B3U  KE= 7.294752043059D+02
 No NMR shielding tensors so no spin-rotation constants.
 Leave Link  601 at Sun Oct 19 14:19:14 2025, MaxMem=    33554432 cpu:         0.0
 (Enter C:\G09W\l9999.exe)
 1|1|UNPC-PRO|SP|RB3LYP|3-21G|Ag2|INANI|19-Oct-2025|0||#p b3lyp/3-21g||
 Title Card Required||0,1|Ag,0,0.,0.,3.5|Ag,0,0.,0.,0.||Version=IA32W-G
 09RevD.01|State=1-SGG|HF=-10352.5969992|RMSD=2.741e-009|Dipole=0.,0.,0
 .|Quadrupole=-2.2222885,-2.2222885,4.4445769,0.,0.,0.|PG=D*H [C*(Ag1.A
 g1)]||@


 THE REASON MAN'S BEST FRIEND IS A DOG IS BECAUSE
 HE WAGS HIS TAIL INSTEAD OF HIS TONGUE.
 Job cpu time:       0 days  0 hours  0 minutes  2.0 seconds.
 File lengths (MBytes):  RWF=      5 Int=      0 D2E=      0 Chk=      1 Scr=      1
 Normal termination of Gaussian 09 at Sun Oct 19 14:19:14 2025.
