 Entering Link 1 = C:\G09W\l1.exe PID=     11828.
  
 Copyright (c) 1988,1990,1992,1993,1995,1998,2003,2009,2013,
            Gaussian, Inc.  All Rights Reserved.
  
 This is part of the Gaussian(R) 09 program.  It is based on
 the Gaussian(R) 03 system (copyright 2003, Gaussian, Inc.),
 the Gaussian(R) 98 system (copyright 1998, Gaussian, Inc.),
 the Gaussian(R) 94 system (copyright 1995, Gaussian, Inc.),
 the Gaussian 92(TM) system (copyright 1992, Gaussian, Inc.),
 the Gaussian 90(TM) system (copyright 1990, Gaussian, Inc.),
 the Gaussian 88(TM) system (copyright 1988, Gaussian, Inc.),
 the Gaussian 86(TM) system (copyright 1986, Carnegie Mellon
 University), and the Gaussian 82(TM) system (copyright 1983,
 Carnegie Mellon University). Gaussian is a federally registered
 trademark of Gaussian, Inc.
  
 This software contains proprietary and confidential information,
 including trade secrets, belonging to Gaussian, Inc.
  
 This software is provided under written license and may be
 used, copied, transmitted, or stored only in accord with that
 written license.
  
 The following legend is applicable only to US Government
 contracts under FAR:
  
                    RESTRICTED RIGHTS LEGEND
  
 Use, reproduction and disclosure by the US Government is
 subject to restrictions as set forth in subparagraphs (a)
 and (c) of the Commercial Computer Software - Restricted
 Rights clause in FAR 52.227-19.
  
 Gaussian, Inc.
 340 Quinnipiac St., Bldg. 40, Wallingford CT 06492
  
  
 ---------------------------------------------------------------
 Warning -- This program may not be used in any manner that
 competes with the business of Gaussian, Inc. or will provide
 assistance to any competitor of Gaussian, Inc.  The licensee
 of this program is prohibited from giving any competitor of
 Gaussian, Inc. access to this program.  By using this program,
 the user acknowledges that Gaussian, Inc. is engaged in the
 business of creating and licensing software in the field of
 computational chemistry and represents and warrants to the
 licensee that it is not a competitor of Gaussian, Inc. and that
 it will not use this program in any manner prohibited above.
 ---------------------------------------------------------------
  

 Cite this work as:
 Gaussian 09, Revision D.01,
 M. J. Frisch, G. W. Trucks, H. B. Schlegel, G. E. Scuseria, 
 M. A. Robb, J. R. Cheeseman, G. Scalmani, V. Barone, B. Mennucci, 
 G. A. Petersson, H. Nakatsuji, M. Caricato, X. Li, H. P. Hratchian, 
 A. F. Izmaylov, J. Bloino, G. Zheng, J. L. Sonnenberg, M. Hada, 
 M. Ehara, K. Toyota, R. Fukuda, J. Hasegawa, M. Ishida, T. Nakajima, 
 Y. Honda, O. Kitao, H. Nakai, T. Vreven, J. A. Montgomery, Jr., 
 J. E. Peralta, F. Ogliaro, M. Bearpark, J. J. Heyd, E. Brothers, 
 K. N. Kudin, V. N. Staroverov, T. Keith, R. Kobayashi, J. Normand, 
 K. Raghavachari, A. Rendell, J. C. Burant, S. S. Iyengar, J. Tomasi, 
 M. Cossi, N. Rega, J. M. Millam, M. Klene, J. E. Knox, J. B. Cross, 
 V. Bakken, C. Adamo, J. Jaramillo, R. Gomperts, R. E. Stratmann, 
 O. Yazyev, A. J. Austin, R. Cammi, C. Pomelli, J. W. Ochterski, 
 R. L. Martin, K. Morokuma, V. G. Zakrzewski, G. A. Voth, 
 P. Salvador, J. J. Dannenberg, S. Dapprich, A. D. Daniels, 
 O. Farkas, J. B. Foresman, J. V. Ortiz, J. Cioslowski, 
 and D. J. Fox, Gaussian, Inc., Wallingford CT, 2013.
 
 ******************************************
 Gaussian 09:  IA32W-G09RevD.01 24-Apr-2013
                19-Oct-2025 
 ******************************************
 %chk=C:\Users\inani\Documents\AG\AG.chk
 --------------
 #p b3lyp/3-21g
 --------------
 1/38=1/1;
 2/12=2,17=6,18=5,40=1/2;
 3/5=5,11=2,16=1,25=1,30=1,74=-5/1,2,3;
 4//1;
 5/5=2,38=5/2;
 6/7=2,8=2,9=2,10=2,28=1/1;
 99/5=1,9=1/99;
 Leave Link    1 at Sun Oct 19 14:19:00 2025, MaxMem=           0 cpu:         0.0
 (Enter C:\G09W\l101.exe)
 -------------------
 Title Card Required
 -------------------
 Symbolic Z-matrix:
 Charge =  0 Multiplicity = 1
 Ag                    0.        0.        1.5 
 Ag                    0.        0.        0. 
 
 NAtoms=      2 NQM=        2 NQMF=       0 NMMI=      0 NMMIF=      0
                NMic=       0 NMicF=      0.
                    Isotopes and Nuclear Properties:
 (Nuclear quadrupole moments (NQMom) in fm**2, nuclear magnetic moments (NMagM)
  in nuclear magnetons)

  Atom         1           2
 IAtWgt=         107         107
 AtmWgt= 106.9050900 106.9050900
 NucSpn=           1           1
 AtZEff=   0.0000000   0.0000000
 NQMom=    0.0000000   0.0000000
 NMagM=   -0.1135700  -0.1135700
 AtZNuc=  47.0000000  47.0000000
 Leave Link  101 at Sun Oct 19 14:19:00 2025, MaxMem=    33554432 cpu:         0.0
 (Enter C:\G09W\l202.exe)
                          Input orientation:                          
 ---------------------------------------------------------------------
 Center     Atomic      Atomic             Coordinates (Angstroms)
 Number     Number       Type             X           Y           Z
 ---------------------------------------------------------------------
      1         47           0        0.000000    0.000000    1.500000
      2         47           0        0.000000    0.000000    0.000000
 ---------------------------------------------------------------------
 Stoichiometry    Ag2
 Framework group  D*H[C*(Ag.Ag)]
 Deg. of freedom     1
 Full point group                 D*H     NOp   8
 Largest Abelian subgroup         D2H     NOp   8
 Largest concise Abelian subgroup C2      NOp   2
                         Standard orientation:                         
 ---------------------------------------------------------------------
 Center     Atomic      Atomic             Coordinates (Angstroms)
 Number     Number       Type             X           Y           Z
 ---------------------------------------------------------------------
      1         47           0        0.000000    0.000000    0.750000
      2         47           0        0.000000    0.000000   -0.750000
 ---------------------------------------------------------------------
 Rotational constants (GHZ):      0.0000000      4.2020991      4.2020991
 Leave Link  202 at Sun Oct 19 14:19:00 2025, MaxMem=    33554432 cpu:         0.0
 (Enter C:\G09W\l301.exe)
 Standard basis: 3-21G (6D, 7F)
 Ernie: Thresh=  0.10000D-02 Tol=  0.10000D-05 Strict=F.
 There are    20 symmetry adapted cartesian basis functions of AG  symmetry.
 There are     3 symmetry adapted cartesian basis functions of B1G symmetry.
 There are     8 symmetry adapted cartesian basis functions of B2G symmetry.
 There are     8 symmetry adapted cartesian basis functions of B3G symmetry.
 There are     3 symmetry adapted cartesian basis functions of AU  symmetry.
 There are    20 symmetry adapted cartesian basis functions of B1U symmetry.
 There are     8 symmetry adapted cartesian basis functions of B2U symmetry.
 There are     8 symmetry adapted cartesian basis functions of B3U symmetry.
 There are    20 symmetry adapted basis functions of AG  symmetry.
 There are     3 symmetry adapted basis functions of B1G symmetry.
 There are     8 symmetry adapted basis functions of B2G symmetry.
 There are     8 symmetry adapted basis functions of B3G symmetry.
 There are     3 symmetry adapted basis functions of AU  symmetry.
 There are    20 symmetry adapted basis functions of B1U symmetry.
 There are     8 symmetry adapted basis functions of B2U symmetry.
 There are     8 symmetry adapted basis functions of B3U symmetry.
    78 basis functions,   174 primitive gaussians,    78 cartesian basis functions
    47 alpha electrons       47 beta electrons
       nuclear repulsion energy       779.3016358502 Hartrees.
 IExCor=  402 DFT=T Ex+Corr=B3LYP ExCW=0 ScaHFX=  0.200000
 ScaDFX=  0.800000  0.720000  1.000000  0.810000 ScalE2=  1.000000  1.000000
 IRadAn=      0 IRanWt=     -1 IRanGd=            0 ICorTp=0 IEmpDi=  4
 NAtoms=    2 NActive=    2 NUniq=    1 SFac= 4.00D+00 NAtFMM=   60 NAOKFM=F Big=F
 Integral buffers will be    262144 words long.
 Raffenetti 2 integral format.
 Two-electron integral symmetry is turned on.
 Leave Link  301 at Sun Oct 19 14:19:00 2025, MaxMem=    33554432 cpu:         0.0
 (Enter C:\G09W\l302.exe)
 NPDir=0 NMtPBC=     1 NCelOv=     1 NCel=       1 NClECP=     1 NCelD=      1
         NCelK=      1 NCelE2=     1 NClLst=     1 CellRange=     0.0.
 One-electron integrals computed using PRISM.
 One-electron integral symmetry used in STVInt
 NBasis=    78 RedAO= T EigKep=  2.49D-04  NBF=    20     3     8     8     3    20     8     8
 NBsUse=    78 1.00D-06 EigRej= -1.00D+00 NBFU=    20     3     8     8     3    20     8     8
 Precomputing XC quadrature grid using
 IXCGrd= 4 IRadAn=           0 IRanWt=          -1 IRanGd=           0 AccXCQ= 0.00D+00.
 Defaulting to unpruned grid for atomic number  47.
 Generated NRdTot=       0 NPtTot=           0 NUsed=           0 NTot=          16
 NSgBfM=    72    72    72    72    72 MxSgAt=     2 MxSgA2=     2.
 Leave Link  302 at Sun Oct 19 14:19:00 2025, MaxMem=    33554432 cpu:         0.0
 (Enter C:\G09W\l303.exe)
 DipDrv:  MaxL=1.
 Leave Link  303 at Sun Oct 19 14:19:00 2025, MaxMem=    33554432 cpu:         0.0
 (Enter C:\G09W\l401.exe)
 ExpMin= 3.49D-02 ExpMax= 1.12D+04 ExpMxC= 1.12D+04 IAcc=3 IRadAn=         5 AccDes= 0.00D+00
 Harris functional with IExCor=  402 and IRadAn=       5 diagonalized for initial guess.
 HarFok:  IExCor=  402 AccDes= 0.00D+00 IRadAn=         5 IDoV= 1 UseB2=F ITyADJ=14
 ICtDFT=  3500011 ScaDFX=  1.000000  1.000000  1.000000  1.000000
 Defaulting to unpruned grid for atomic number  47.
 FoFCou: FMM=F IPFlag=           0 FMFlag=      100000 FMFlg1=           0
         NFxFlg=           0 DoJE=T BraDBF=F KetDBF=T FulRan=T
         wScrn=  0.000000 ICntrl=     500 IOpCl=  0 I1Cent=   200000004 NGrid=           0
         NMat0=    1 NMatS0=      1 NMatT0=    0 NMatD0=    1 NMtDS0=    0 NMtDT0=    0
 Petite list used in FoFCou.
 Harris En= -10352.5525870665    
 JPrj=0 DoOrth=F DoCkMO=F.
 Initial guess orbital symmetries:
       Occupied  (SGU) (SGG) (SGU) (SGG) (SGU) (SGG) (PIG) (PIG)
                 (PIU) (PIU) (SGU) (SGG) (SGU) (SGG) (PIG) (PIG)
                 (PIU) (PIU) (SGU) (SGG) (PIG) (PIG) (PIU) (PIU)
                 (DLTU) (DLTU) (DLTG) (DLTG) (SGG) (SGU) (SGG)
                 (PIU) (PIU) (PIG) (PIG) (SGU) (PIU) (PIU) (SGG)
                 (DLTG) (DLTG) (DLTU) (DLTU) (SGG) (PIG) (PIG)
                 (SGU)
       Virtual   (PIU) (PIU) (SGU) (SGG) (PIG) (PIG) (SGG) (SGU)
                 (PIU) (PIU) (SGU) (SGG) (PIG) (PIG) (SGU) (SGG)
                 (SGU) (DLTG) (DLTG) (PIU) (PIU) (DLTU) (DLTU)
                 (SGU) (PIG) (PIG) (SGG) (SGG) (SGU) (SGG) (SGU)
 The electronic state of the initial guess is 1-SGG.
 Leave Link  401 at Sun Oct 19 14:19:00 2025, MaxMem=    33554432 cpu:         0.0
 (Enter C:\G09W\l502.exe)
 Closed shell SCF:
 Using DIIS extrapolation, IDIIS=  1040.
 Integral symmetry usage will be decided dynamically.
 Keep R1 ints in memory in symmetry-blocked form, NReq=5685550.
 IVT=       37753 IEndB=       37753 NGot=    33554432 MDV=    32866241
 LenX=    32866241 LenY=    32859716
 Requested convergence on RMS density matrix=1.00D-08 within 128 cycles.
 Requested convergence on MAX density matrix=1.00D-06.
 Requested convergence on             energy=1.00D-06.
 No special actions if energy rises.
 FoFCou: FMM=F IPFlag=           0 FMFlag=           0 FMFlg1=           0
         NFxFlg=           0 DoJE=F BraDBF=F KetDBF=F FulRan=T
         wScrn=  0.000000 ICntrl=     600 IOpCl=  0 I1Cent=           0 NGrid=           0
         NMat0=    1 NMatS0=   3081 NMatT0=    0 NMatD0=    1 NMtDS0=    0 NMtDT0=    0
 Petite list used in FoFCou.

 Cycle   1  Pass 1  IDiag  1:
 Defaulting to unpruned grid for atomic number  47.
 E= -10350.4824218774    
 DIIS: error= 5.29D-01 at cycle   1 NSaved=   1.
 NSaved= 1 IEnMin= 1 EnMin= -10350.4824218774     IErMin= 1 ErrMin= 5.29D-01
 ErrMax= 5.29D-01  0.00D+00 EMaxC= 1.00D-01 BMatC= 5.28D+00 BMatP= 5.28D+00
 IDIUse=3 WtCom= 0.00D+00 WtEn= 1.00D+00
 Coeff-Com:  0.100D+01
 Coeff-En:   0.100D+01
 Coeff:      0.100D+01
 Gap=    -0.128 Goal=   None    Shift=    0.000
 GapD=   -0.128 DampG=0.250 DampE=0.125 DampFc=0.1250 IDamp=-1.
 Damping current iteration by 1.25D-01
 RMSDP=1.27D-01 MaxDP=3.13D+00              OVMax= 0.00D+00

 Cycle   2  Pass 1  IDiag  1:
 E= -10350.7138478678     Delta-E=       -0.231425990418 Rises=F Damp=T
 DIIS: error= 4.58D-01 at cycle   2 NSaved=   2.
 NSaved= 2 IEnMin= 2 EnMin= -10350.7138478678     IErMin= 2 ErrMin= 4.58D-01
 ErrMax= 4.58D-01  0.00D+00 EMaxC= 1.00D-01 BMatC= 3.62D+00 BMatP= 5.28D+00
 IDIUse=3 WtCom= 0.00D+00 WtEn= 1.00D+00
 Coeff-Com: -0.383D+01 0.483D+01
 Coeff-En:   0.000D+00 0.100D+01
 Coeff:      0.000D+00 0.100D+01
 Gap=     0.242 Goal=   None    Shift=    0.000
 RMSDP=1.09D-01 MaxDP=2.74D+00 DE=-2.31D-01 OVMax= 0.00D+00

 Cycle   3  Pass 1  IDiag  1:
 E= -10350.5379664067     Delta-E=        0.175881461058 Rises=F Damp=F
 DIIS: error= 1.26D-01 at cycle   3 NSaved=   3.
 NSaved= 3 IEnMin= 2 EnMin= -10350.7138478678     IErMin= 3 ErrMin= 1.26D-01
 ErrMax= 1.26D-01  0.00D+00 EMaxC= 1.00D-01 BMatC= 1.27D+00 BMatP= 3.62D+00
 IDIUse=3 WtCom= 0.00D+00 WtEn= 1.00D+00
 EnCoef did   100 forward-backward iterations
 Coeff-Com:  0.187D+01-0.185D+01 0.981D+00
 Coeff-En:   0.478D+00 0.100D-01 0.512D+00
 Coeff:      0.478D+00 0.100D-01 0.512D+00
 Gap=     0.126 Goal=   None    Shift=    0.000
 RMSDP=7.07D-02 MaxDP=1.26D+00 DE= 1.76D-01 OVMax= 0.00D+00

 Cycle   4  Pass 1  IDiag  1:
 E= -10351.3379569444     Delta-E=       -0.799990537655 Rises=F Damp=F
 DIIS: error= 7.25D-03 at cycle   4 NSaved=   4.
 NSaved= 4 IEnMin= 4 EnMin= -10351.3379569444     IErMin= 4 ErrMin= 7.25D-03
 ErrMax= 7.25D-03  0.00D+00 EMaxC= 1.00D-01 BMatC= 4.58D-03 BMatP= 1.27D+00
 IDIUse=3 WtCom= 9.28D-01 WtEn= 7.25D-02
 Coeff-Com:  0.124D+00-0.137D+00-0.212D-01 0.103D+01
 Coeff-En:   0.000D+00 0.000D+00 0.000D+00 0.100D+01
 Coeff:      0.115D+00-0.127D+00-0.197D-01 0.103D+01
 Gap=     0.119 Goal=   None    Shift=    0.000
 RMSDP=4.56D-02 MaxDP=1.07D+00 DE=-8.00D-01 OVMax= 0.00D+00

 Cycle   5  Pass 1  IDiag  1:
 E= -10351.3425282032     Delta-E=       -0.004571258798 Rises=F Damp=F
 DIIS: error= 4.40D-03 at cycle   5 NSaved=   5.
 NSaved= 5 IEnMin= 5 EnMin= -10351.3425282032     IErMin= 5 ErrMin= 4.40D-03
 ErrMax= 4.40D-03  0.00D+00 EMaxC= 1.00D-01 BMatC= 1.90D-03 BMatP= 4.58D-03
 IDIUse=3 WtCom= 9.56D-01 WtEn= 4.40D-02
 Coeff-Com: -0.532D-01 0.629D-01 0.928D-02 0.209D+00 0.772D+00
 Coeff-En:   0.000D+00 0.000D+00 0.000D+00 0.134D+00 0.866D+00
 Coeff:     -0.509D-01 0.602D-01 0.887D-02 0.206D+00 0.776D+00
 Gap=     0.133 Goal=   None    Shift=    0.000
 RMSDP=1.58D-02 MaxDP=3.90D-01 DE=-4.57D-03 OVMax= 0.00D+00

 Cycle   6  Pass 1  IDiag  1:
 E= -10351.3440861403     Delta-E=       -0.001557937081 Rises=F Damp=F
 DIIS: error= 9.86D-04 at cycle   6 NSaved=   6.
 NSaved= 6 IEnMin= 6 EnMin= -10351.3440861403     IErMin= 6 ErrMin= 9.86D-04
 ErrMax= 9.86D-04  0.00D+00 EMaxC= 1.00D-01 BMatC= 8.41D-05 BMatP= 1.90D-03
 IDIUse=3 WtCom= 9.90D-01 WtEn= 9.86D-03
 Coeff-Com:  0.297D-02-0.351D-02-0.385D-02-0.912D-03 0.814D-01 0.924D+00
 Coeff-En:   0.000D+00 0.000D+00 0.000D+00 0.000D+00 0.000D+00 0.100D+01
 Coeff:      0.294D-02-0.348D-02-0.381D-02-0.903D-03 0.806D-01 0.925D+00
 Gap=     0.132 Goal=   None    Shift=    0.000
 RMSDP=2.10D-03 MaxDP=4.65D-02 DE=-1.56D-03 OVMax= 0.00D+00

 Cycle   7  Pass 1  IDiag  1:
 E= -10351.3441438666     Delta-E=       -0.000057726364 Rises=F Damp=F
 DIIS: error= 1.03D-04 at cycle   7 NSaved=   7.
 NSaved= 7 IEnMin= 7 EnMin= -10351.3441438666     IErMin= 7 ErrMin= 1.03D-04
 ErrMax= 1.03D-04  0.00D+00 EMaxC= 1.00D-01 BMatC= 9.97D-07 BMatP= 8.41D-05
 IDIUse=3 WtCom= 9.99D-01 WtEn= 1.03D-03
 Coeff-Com:  0.213D-03-0.275D-03-0.159D-03-0.631D-02-0.887D-02-0.964D-01
 Coeff-Com:  0.111D+01
 Coeff-En:   0.000D+00 0.000D+00 0.000D+00 0.000D+00 0.000D+00 0.000D+00
 Coeff-En:   0.100D+01
 Coeff:      0.212D-03-0.275D-03-0.159D-03-0.630D-02-0.886D-02-0.963D-01
 Coeff:      0.111D+01
 Gap=     0.132 Goal=   None    Shift=    0.000
 RMSDP=2.94D-04 MaxDP=6.11D-03 DE=-5.77D-05 OVMax= 0.00D+00

 Cycle   8  Pass 1  IDiag  1:
 E= -10351.3441451283     Delta-E=       -0.000001261675 Rises=F Damp=F
 DIIS: error= 3.00D-05 at cycle   8 NSaved=   8.
 NSaved= 8 IEnMin= 8 EnMin= -10351.3441451283     IErMin= 8 ErrMin= 3.00D-05
 ErrMax= 3.00D-05  0.00D+00 EMaxC= 1.00D-01 BMatC= 7.97D-08 BMatP= 9.97D-07
 IDIUse=1 WtCom= 1.00D+00 WtEn= 0.00D+00
 Coeff-Com: -0.150D-04 0.187D-04 0.578D-04 0.975D-04 0.434D-03-0.307D-01
 Coeff-Com: -0.880D-01 0.112D+01
 Coeff:     -0.150D-04 0.187D-04 0.578D-04 0.975D-04 0.434D-03-0.307D-01
 Coeff:     -0.880D-01 0.112D+01
 Gap=     0.132 Goal=   None    Shift=    0.000
 RMSDP=1.18D-04 MaxDP=2.69D-03 DE=-1.26D-06 OVMax= 0.00D+00

 Cycle   9  Pass 1  IDiag  1:
 E= -10351.3441451991     Delta-E=       -0.000000070759 Rises=F Damp=F
 DIIS: error= 1.51D-06 at cycle   9 NSaved=   9.
 NSaved= 9 IEnMin= 9 EnMin= -10351.3441451991     IErMin= 9 ErrMin= 1.51D-06
 ErrMax= 1.51D-06  0.00D+00 EMaxC= 1.00D-01 BMatC= 1.86D-10 BMatP= 7.97D-08
 IDIUse=1 WtCom= 1.00D+00 WtEn= 0.00D+00
 Coeff-Com:  0.537D-05-0.642D-05 0.132D-06-0.401D-04-0.287D-04 0.458D-02
 Coeff-Com: -0.485D-02-0.759D-01 0.108D+01
 Coeff:      0.537D-05-0.642D-05 0.132D-06-0.401D-04-0.287D-04 0.458D-02
 Coeff:     -0.485D-02-0.759D-01 0.108D+01
 Gap=     0.132 Goal=   None    Shift=    0.000
 RMSDP=1.32D-06 MaxDP=3.44D-05 DE=-7.08D-08 OVMax= 0.00D+00

 Cycle  10  Pass 1  IDiag  1:
 E= -10351.3441451990     Delta-E=        0.000000000056 Rises=F Damp=F
 DIIS: error= 8.90D-08 at cycle  10 NSaved=  10.
 NSaved=10 IEnMin= 9 EnMin= -10351.3441451991     IErMin=10 ErrMin= 8.90D-08
 ErrMax= 8.90D-08  0.00D+00 EMaxC= 1.00D-01 BMatC= 6.57D-13 BMatP= 1.86D-10
 IDIUse=1 WtCom= 1.00D+00 WtEn= 0.00D+00
 Coeff-Com:  0.319D-06-0.357D-06-0.165D-06 0.175D-05-0.303D-06-0.264D-05
 Coeff-Com:  0.371D-03 0.514D-03-0.381D-01 0.104D+01
 Coeff:      0.319D-06-0.357D-06-0.165D-06 0.175D-05-0.303D-06-0.264D-05
 Coeff:      0.371D-03 0.514D-03-0.381D-01 0.104D+01
 Gap=     0.132 Goal=   None    Shift=    0.000
 RMSDP=2.96D-07 MaxDP=6.44D-06 DE= 5.64D-11 OVMax= 0.00D+00

 Cycle  11  Pass 1  IDiag  1:
 E= -10351.3441451991     Delta-E=       -0.000000000113 Rises=F Damp=F
 DIIS: error= 3.40D-09 at cycle  11 NSaved=  11.
 NSaved=11 IEnMin=11 EnMin= -10351.3441451991     IErMin=11 ErrMin= 3.40D-09
 ErrMax= 3.40D-09  0.00D+00 EMaxC= 1.00D-01 BMatC= 9.63D-16 BMatP= 6.57D-13
 IDIUse=1 WtCom= 1.00D+00 WtEn= 0.00D+00
 Large coefficients: NSaved= 11 BigCof=    0.00 CofMax=   10.00 Det=-4.40D-15
 Inversion failed.  Reducing to 10 matrices.
 Large coefficients: NSaved= 10 BigCof=    0.00 CofMax=   10.00 Det=-4.80D-15
 Inversion failed.  Reducing to  9 matrices.
 Coeff-Com:  0.168D-08 0.236D-06-0.368D-06-0.271D-04 0.521D-05 0.373D-03
 Coeff-Com: -0.591D-02-0.610D-02 0.101D+01
 Coeff:      0.168D-08 0.236D-06-0.368D-06-0.271D-04 0.521D-05 0.373D-03
 Coeff:     -0.591D-02-0.610D-02 0.101D+01
 Gap=     0.132 Goal=   None    Shift=    0.000
 RMSDP=5.71D-09 MaxDP=1.58D-07 DE=-1.13D-10 OVMax= 0.00D+00

 SCF Done:  E(RB3LYP) =  -10351.3441452     A.U. after   11 cycles
            NFock= 11  Conv=0.57D-08     -V/T= 2.0036
 KE= 1.031379027369D+04 PE=-2.617675853690D+04 EE= 4.732322482163D+03
 Leave Link  502 at Sun Oct 19 14:19:01 2025, MaxMem=    33554432 cpu:         1.0
 (Enter C:\G09W\l601.exe)
 Copying SCF densities to generalized density rwf, IOpCl= 0 IROHF=0.

 **********************************************************************

            Population analysis using the SCF density.

 **********************************************************************

 Orbital symmetries:
       Occupied  (SGU) (SGG) (SGU) (SGG) (SGU) (PIG) (PIG) (PIU)
                 (PIU) (SGG) (SGU) (SGG) (SGU) (SGG) (PIG) (PIG)
                 (PIU) (PIU) (SGU) (SGG) (PIG) (PIG) (PIU) (PIU)
                 (DLTU) (DLTU) (DLTG) (DLTG) (SGG) (SGU) (SGG)
                 (PIU) (PIU) (PIG) (PIG) (SGU) (PIU) (PIU) (SGG)
                 (DLTG) (DLTG) (DLTU) (DLTU) (PIG) (PIG) (SGG)
                 (SGU)
       Virtual   (SGU) (PIU) (PIU) (SGG) (PIG) (PIG) (SGU) (SGG)
                 (PIU) (PIU) (SGU) (SGG) (PIG) (PIG) (SGU) (SGG)
                 (SGU) (DLTG) (DLTG) (PIU) (PIU) (DLTU) (DLTU)
                 (SGU) (PIG) (PIG) (SGG) (SGG) (SGU) (SGG) (SGU)
 The electronic state is 1-SGG.
 Alpha  occ. eigenvalues -- -898.87405-898.87266-130.60712-130.60704-121.10894
 Alpha  occ. eigenvalues -- -121.10626-121.10626-121.10597-121.10597-121.10540
 Alpha  occ. eigenvalues --  -24.24628 -24.24626 -20.21837 -20.21806 -20.20919
 Alpha  occ. eigenvalues --  -20.20919 -20.20912 -20.20912 -13.71576 -13.71382
 Alpha  occ. eigenvalues --  -13.71234 -13.71234 -13.71171 -13.71171 -13.70730
 Alpha  occ. eigenvalues --  -13.70730 -13.70702 -13.70702  -3.63123  -3.41930
 Alpha  occ. eigenvalues --   -2.47974  -2.24642  -2.24642  -2.14695  -2.14695
 Alpha  occ. eigenvalues --   -2.03764  -0.63461  -0.63461  -0.60967  -0.46429
 Alpha  occ. eigenvalues --   -0.46428  -0.34585  -0.34584  -0.24367  -0.24367
 Alpha  occ. eigenvalues --   -0.21015  -0.18424
 Alpha virt. eigenvalues --   -0.05264  -0.04509  -0.04509   0.03010   0.05160
 Alpha virt. eigenvalues --    0.05160   0.07908   0.07951   0.11314   0.11314
 Alpha virt. eigenvalues --    0.15683   0.19899   0.23103   0.23103   0.44939
 Alpha virt. eigenvalues --    0.64108   0.83513   1.14181   1.14182   1.30622
 Alpha virt. eigenvalues --    1.30622   1.36341   1.36342   1.46372   1.49776
 Alpha virt. eigenvalues --    1.49776   1.75111   4.20471   4.44742 195.33899
 Alpha virt. eigenvalues --  195.57948
          Condensed to atoms (all electrons):
               1          2
     1  Ag  59.423244 -12.423244
     2  Ag -12.423244  59.423244
 Mulliken charges:
               1
     1  Ag   0.000000
     2  Ag   0.000000
 Sum of Mulliken charges =   0.00000
 Mulliken charges with hydrogens summed into heavy atoms:
               1
     1  Ag   0.000000
     2  Ag   0.000000
 Electronic spatial extent (au):  <R**2>=            285.7620
 Charge=              0.0000 electrons
 Dipole moment (field-independent basis, Debye):
    X=              0.0000    Y=              0.0000    Z=              0.0000  Tot=              0.0000
 Quadrupole moment (field-independent basis, Debye-Ang):
   XX=            -43.9299   YY=            -43.9299   ZZ=            -42.5304
   XY=              0.0000   XZ=              0.0000   YZ=              0.0000
 Traceless Quadrupole moment (field-independent basis, Debye-Ang):
   XX=             -0.4665   YY=             -0.4665   ZZ=              0.9330
   XY=              0.0000   XZ=              0.0000   YZ=              0.0000
 Octapole moment (field-independent basis, Debye-Ang**2):
  XXX=              0.0000  YYY=              0.0000  ZZZ=              0.0000  XYY=              0.0000
  XXY=              0.0000  XXZ=              0.0000  XZZ=              0.0000  YZZ=              0.0000
  YYZ=              0.0000  XYZ=              0.0000
 Hexadecapole moment (field-independent basis, Debye-Ang**3):
 XXXX=            -62.5588 YYYY=            -62.5588 ZZZZ=           -189.1136 XXXY=              0.0000
 XXXZ=              0.0000 YYYX=              0.0000 YYYZ=              0.0000 ZZZX=              0.0000
 ZZZY=              0.0000 XXYY=            -20.8529 XXZZ=            -44.6985 YYZZ=            -44.6985
 XXYZ=              0.0000 YYXZ=              0.0000 ZZXY=              0.0000
 N-N= 7.793016358502D+02 E-N=-2.617675853550D+04  KE= 1.031379027369D+04
 Symmetry AG   KE= 3.567031922860D+03
 Symmetry B1G  KE= 1.254117558407D+02
 Symmetry B2G  KE= 7.325033531845D+02
 Symmetry B3G  KE= 7.325033531845D+02
 Symmetry AU   KE= 1.277931128340D+02
 Symmetry B1U  KE= 3.572397459194D+03
 Symmetry B2U  KE= 7.280746582971D+02
 Symmetry B3U  KE= 7.280746582971D+02
 No NMR shielding tensors so no spin-rotation constants.
 Leave Link  601 at Sun Oct 19 14:19:01 2025, MaxMem=    33554432 cpu:         0.0
 (Enter C:\G09W\l9999.exe)
 1|1|UNPC-PRO|SP|RB3LYP|3-21G|Ag2|INANI|19-Oct-2025|0||#p b3lyp/3-21g||
 Title Card Required||0,1|Ag,0,0.,0.,1.5|Ag,0,0.,0.,0.||Version=IA32W-G
 09RevD.01|State=1-SGG|HF=-10351.3441452|RMSD=5.705e-009|Dipole=0.,0.,0
 .|Quadrupole=-0.3468316,-0.3468316,0.6936633,0.,0.,0.|PG=D*H [C*(Ag1.A
 g1)]||@


 THE REASON MAN'S BEST FRIEND IS A DOG IS BECAUSE
 HE WAGS HIS TAIL INSTEAD OF HIS TONGUE.
 Job cpu time:       0 days  0 hours  0 minutes  1.0 seconds.
 File lengths (MBytes):  RWF=      5 Int=      0 D2E=      0 Chk=      1 Scr=      1
 Normal termination of Gaussian 09 at Sun Oct 19 14:19:01 2025.
