 Entering Link 1 = C:\G09W\l1.exe PID=      3264.
  
 Copyright (c) 1988,1990,1992,1993,1995,1998,2003,2009,2013,
            Gaussian, Inc.  All Rights Reserved.
  
 This is part of the Gaussian(R) 09 program.  It is based on
 the Gaussian(R) 03 system (copyright 2003, Gaussian, Inc.),
 the Gaussian(R) 98 system (copyright 1998, Gaussian, Inc.),
 the Gaussian(R) 94 system (copyright 1995, Gaussian, Inc.),
 the Gaussian 92(TM) system (copyright 1992, Gaussian, Inc.),
 the Gaussian 90(TM) system (copyright 1990, Gaussian, Inc.),
 the Gaussian 88(TM) system (copyright 1988, Gaussian, Inc.),
 the Gaussian 86(TM) system (copyright 1986, Carnegie Mellon
 University), and the Gaussian 82(TM) system (copyright 1983,
 Carnegie Mellon University). Gaussian is a federally registered
 trademark of Gaussian, Inc.
  
 This software contains proprietary and confidential information,
 including trade secrets, belonging to Gaussian, Inc.
  
 This software is provided under written license and may be
 used, copied, transmitted, or stored only in accord with that
 written license.
  
 The following legend is applicable only to US Government
 contracts under FAR:
  
                    RESTRICTED RIGHTS LEGEND
  
 Use, reproduction and disclosure by the US Government is
 subject to restrictions as set forth in subparagraphs (a)
 and (c) of the Commercial Computer Software - Restricted
 Rights clause in FAR 52.227-19.
  
 Gaussian, Inc.
 340 Quinnipiac St., Bldg. 40, Wallingford CT 06492
  
  
 ---------------------------------------------------------------
 Warning -- This program may not be used in any manner that
 competes with the business of Gaussian, Inc. or will provide
 assistance to any competitor of Gaussian, Inc.  The licensee
 of this program is prohibited from giving any competitor of
 Gaussian, Inc. access to this program.  By using this program,
 the user acknowledges that Gaussian, Inc. is engaged in the
 business of creating and licensing software in the field of
 computational chemistry and represents and warrants to the
 licensee that it is not a competitor of Gaussian, Inc. and that
 it will not use this program in any manner prohibited above.
 ---------------------------------------------------------------
  

 Cite this work as:
 Gaussian 09, Revision D.01,
 M. J. Frisch, G. W. Trucks, H. B. Schlegel, G. E. Scuseria, 
 M. A. Robb, J. R. Cheeseman, G. Scalmani, V. Barone, B. Mennucci, 
 G. A. Petersson, H. Nakatsuji, M. Caricato, X. Li, H. P. Hratchian, 
 A. F. Izmaylov, J. Bloino, G. Zheng, J. L. Sonnenberg, M. Hada, 
 M. Ehara, K. Toyota, R. Fukuda, J. Hasegawa, M. Ishida, T. Nakajima, 
 Y. Honda, O. Kitao, H. Nakai, T. Vreven, J. A. Montgomery, Jr., 
 J. E. Peralta, F. Ogliaro, M. Bearpark, J. J. Heyd, E. Brothers, 
 K. N. Kudin, V. N. Staroverov, T. Keith, R. Kobayashi, J. Normand, 
 K. Raghavachari, A. Rendell, J. C. Burant, S. S. Iyengar, J. Tomasi, 
 M. Cossi, N. Rega, J. M. Millam, M. Klene, J. E. Knox, J. B. Cross, 
 V. Bakken, C. Adamo, J. Jaramillo, R. Gomperts, R. E. Stratmann, 
 O. Yazyev, A. J. Austin, R. Cammi, C. Pomelli, J. W. Ochterski, 
 R. L. Martin, K. Morokuma, V. G. Zakrzewski, G. A. Voth, 
 P. Salvador, J. J. Dannenberg, S. Dapprich, A. D. Daniels, 
 O. Farkas, J. B. Foresman, J. V. Ortiz, J. Cioslowski, 
 and D. J. Fox, Gaussian, Inc., Wallingford CT, 2013.
 
 ******************************************
 Gaussian 09:  IA32W-G09RevD.01 24-Apr-2013
                19-Oct-2025 
 ******************************************
 %chk=C:\Users\inani\Documents\AG\AG.chk
 --------------
 #p b3lyp/3-21g
 --------------
 1/38=1/1;
 2/12=2,17=6,18=5,40=1/2;
 3/5=5,11=2,16=1,25=1,30=1,74=-5/1,2,3;
 4//1;
 5/5=2,38=5/2;
 6/7=2,8=2,9=2,10=2,28=1/1;
 99/5=1,9=1/99;
 Leave Link    1 at Sun Oct 19 14:19:25 2025, MaxMem=           0 cpu:         0.0
 (Enter C:\G09W\l101.exe)
 -------------------
 Title Card Required
 -------------------
 Symbolic Z-matrix:
 Charge =  0 Multiplicity = 1
 Ag                    0.        0.        6. 
 Ag                    0.        0.        0. 
 
 NAtoms=      2 NQM=        2 NQMF=       0 NMMI=      0 NMMIF=      0
                NMic=       0 NMicF=      0.
                    Isotopes and Nuclear Properties:
 (Nuclear quadrupole moments (NQMom) in fm**2, nuclear magnetic moments (NMagM)
  in nuclear magnetons)

  Atom         1           2
 IAtWgt=         107         107
 AtmWgt= 106.9050900 106.9050900
 NucSpn=           1           1
 AtZEff=   0.0000000   0.0000000
 NQMom=    0.0000000   0.0000000
 NMagM=   -0.1135700  -0.1135700
 AtZNuc=  47.0000000  47.0000000
 Leave Link  101 at Sun Oct 19 14:19:25 2025, MaxMem=    33554432 cpu:         0.0
 (Enter C:\G09W\l202.exe)
                          Input orientation:                          
 ---------------------------------------------------------------------
 Center     Atomic      Atomic             Coordinates (Angstroms)
 Number     Number       Type             X           Y           Z
 ---------------------------------------------------------------------
      1         47           0        0.000000    0.000000    6.000000
      2         47           0        0.000000    0.000000    0.000000
 ---------------------------------------------------------------------
 Stoichiometry    Ag2
 Framework group  D*H[C*(Ag.Ag)]
 Deg. of freedom     1
 Full point group                 D*H     NOp   8
 Largest Abelian subgroup         D2H     NOp   8
 Largest concise Abelian subgroup C2      NOp   2
                         Standard orientation:                         
 ---------------------------------------------------------------------
 Center     Atomic      Atomic             Coordinates (Angstroms)
 Number     Number       Type             X           Y           Z
 ---------------------------------------------------------------------
      1         47           0        0.000000    0.000000    3.000000
      2         47           0        0.000000    0.000000   -3.000000
 ---------------------------------------------------------------------
 Rotational constants (GHZ):      0.0000000      0.2626312      0.2626312
 Leave Link  202 at Sun Oct 19 14:19:25 2025, MaxMem=    33554432 cpu:         0.0
 (Enter C:\G09W\l301.exe)
 Standard basis: 3-21G (6D, 7F)
 Ernie: Thresh=  0.10000D-02 Tol=  0.10000D-05 Strict=F.
 There are    20 symmetry adapted cartesian basis functions of AG  symmetry.
 There are     3 symmetry adapted cartesian basis functions of B1G symmetry.
 There are     8 symmetry adapted cartesian basis functions of B2G symmetry.
 There are     8 symmetry adapted cartesian basis functions of B3G symmetry.
 There are     3 symmetry adapted cartesian basis functions of AU  symmetry.
 There are    20 symmetry adapted cartesian basis functions of B1U symmetry.
 There are     8 symmetry adapted cartesian basis functions of B2U symmetry.
 There are     8 symmetry adapted cartesian basis functions of B3U symmetry.
 There are    20 symmetry adapted basis functions of AG  symmetry.
 There are     3 symmetry adapted basis functions of B1G symmetry.
 There are     8 symmetry adapted basis functions of B2G symmetry.
 There are     8 symmetry adapted basis functions of B3G symmetry.
 There are     3 symmetry adapted basis functions of AU  symmetry.
 There are    20 symmetry adapted basis functions of B1U symmetry.
 There are     8 symmetry adapted basis functions of B2U symmetry.
 There are     8 symmetry adapted basis functions of B3U symmetry.
    78 basis functions,   174 primitive gaussians,    78 cartesian basis functions
    47 alpha electrons       47 beta electrons
       nuclear repulsion energy       194.8254089626 Hartrees.
 IExCor=  402 DFT=T Ex+Corr=B3LYP ExCW=0 ScaHFX=  0.200000
 ScaDFX=  0.800000  0.720000  1.000000  0.810000 ScalE2=  1.000000  1.000000
 IRadAn=      0 IRanWt=     -1 IRanGd=            0 ICorTp=0 IEmpDi=  4
 NAtoms=    2 NActive=    2 NUniq=    1 SFac= 4.00D+00 NAtFMM=   60 NAOKFM=F Big=F
 Integral buffers will be    262144 words long.
 Raffenetti 2 integral format.
 Two-electron integral symmetry is turned on.
 Leave Link  301 at Sun Oct 19 14:19:25 2025, MaxMem=    33554432 cpu:         0.0
 (Enter C:\G09W\l302.exe)
 NPDir=0 NMtPBC=     1 NCelOv=     1 NCel=       1 NClECP=     1 NCelD=      1
         NCelK=      1 NCelE2=     1 NClLst=     1 CellRange=     0.0.
 One-electron integrals computed using PRISM.
 One-electron integral symmetry used in STVInt
 NBasis=    78 RedAO= T EigKep=  1.76D-03  NBF=    20     3     8     8     3    20     8     8
 NBsUse=    78 1.00D-06 EigRej= -1.00D+00 NBFU=    20     3     8     8     3    20     8     8
 Precomputing XC quadrature grid using
 IXCGrd= 4 IRadAn=           0 IRanWt=          -1 IRanGd=           0 AccXCQ= 0.00D+00.
 Defaulting to unpruned grid for atomic number  47.
 Generated NRdTot=       0 NPtTot=           0 NUsed=           0 NTot=          16
 NSgBfM=    48    48    48    48    48 MxSgAt=     2 MxSgA2=     2.
 Leave Link  302 at Sun Oct 19 14:19:26 2025, MaxMem=    33554432 cpu:         1.0
 (Enter C:\G09W\l303.exe)
 DipDrv:  MaxL=1.
 Leave Link  303 at Sun Oct 19 14:19:26 2025, MaxMem=    33554432 cpu:         0.0
 (Enter C:\G09W\l401.exe)
 ExpMin= 3.49D-02 ExpMax= 1.12D+04 ExpMxC= 1.12D+04 IAcc=3 IRadAn=         5 AccDes= 0.00D+00
 Harris functional with IExCor=  402 and IRadAn=       5 diagonalized for initial guess.
 HarFok:  IExCor=  402 AccDes= 0.00D+00 IRadAn=         5 IDoV= 1 UseB2=F ITyADJ=14
 ICtDFT=  3500011 ScaDFX=  1.000000  1.000000  1.000000  1.000000
 Defaulting to unpruned grid for atomic number  47.
 FoFCou: FMM=F IPFlag=           0 FMFlag=      100000 FMFlg1=           0
         NFxFlg=           0 DoJE=T BraDBF=F KetDBF=T FulRan=T
         wScrn=  0.000000 ICntrl=     500 IOpCl=  0 I1Cent=   200000004 NGrid=           0
         NMat0=    1 NMatS0=      1 NMatT0=    0 NMatD0=    1 NMtDS0=    0 NMtDT0=    0
 Petite list used in FoFCou.
 Harris En= -10353.6670720673    
 JPrj=0 DoOrth=F DoCkMO=F.
 Initial guess orbital symmetries:
       Occupied  (SGU) (SGG) (SGG) (SGU) (SGG) (SGU) (PIG) (PIG)
                 (PIU) (PIU) (SGU) (SGG) (SGG) (SGU) (PIG) (PIG)
                 (PIU) (PIU) (SGU) (SGG) (PIG) (PIG) (PIU) (PIU)
                 (DLTU) (DLTG) (DLTU) (DLTG) (SGG) (SGU) (SGG)
                 (SGU) (PIG) (PIG) (PIU) (PIU) (SGU) (SGG) (PIG)
                 (PIG) (PIU) (PIU) (DLTG) (DLTU) (DLTG) (DLTU)
                 (SGG)
       Virtual   (SGU) (SGG) (PIU) (PIU) (PIG) (PIG) (SGU) (SGG)
                 (SGU) (PIU) (PIU) (PIG) (PIG) (SGU) (SGG) (SGG)
                 (SGU) (PIU) (PIU) (PIG) (PIG) (DLTG) (DLTU) (DLTG)
                 (DLTU) (SGG) (SGU) (SGG) (SGU) (SGU) (SGG)
 The electronic state of the initial guess is 1-SGG.
 Leave Link  401 at Sun Oct 19 14:19:26 2025, MaxMem=    33554432 cpu:         0.0
 (Enter C:\G09W\l502.exe)
 Closed shell SCF:
 Using DIIS extrapolation, IDIIS=  1040.
 Integral symmetry usage will be decided dynamically.
 Keep R1 ints in memory in symmetry-blocked form, NReq=5685550.
 IVT=       37753 IEndB=       37753 NGot=    33554432 MDV=    32866241
 LenX=    32866241 LenY=    32859716
 Requested convergence on RMS density matrix=1.00D-08 within 128 cycles.
 Requested convergence on MAX density matrix=1.00D-06.
 Requested convergence on             energy=1.00D-06.
 No special actions if energy rises.
 FoFCou: FMM=F IPFlag=           0 FMFlag=           0 FMFlg1=           0
         NFxFlg=           0 DoJE=F BraDBF=F KetDBF=F FulRan=T
         wScrn=  0.000000 ICntrl=     600 IOpCl=  0 I1Cent=           0 NGrid=           0
         NMat0=    1 NMatS0=   3081 NMatT0=    0 NMatD0=    1 NMtDS0=    0 NMtDT0=    0
 Petite list used in FoFCou.

 Cycle   1  Pass 1  IDiag  1:
 Defaulting to unpruned grid for atomic number  47.
 E= -10352.4192435234    
 DIIS: error= 5.13D-01 at cycle   1 NSaved=   1.
 NSaved= 1 IEnMin= 1 EnMin= -10352.4192435234     IErMin= 1 ErrMin= 5.13D-01
 ErrMax= 5.13D-01  0.00D+00 EMaxC= 1.00D-01 BMatC= 4.20D+00 BMatP= 4.20D+00
 IDIUse=3 WtCom= 0.00D+00 WtEn= 1.00D+00
 Coeff-Com:  0.100D+01
 Coeff-En:   0.100D+01
 Coeff:      0.100D+01
 Gap=     0.023 Goal=   None    Shift=    0.000
 GapD=    0.023 DampG=0.250 DampE=0.125 DampFc=0.1250 IDamp=-1.
 Damping current iteration by 1.25D-01
 RMSDP=1.36D-02 MaxDP=4.16D-01              OVMax= 0.00D+00

 Cycle   2  Pass 1  IDiag  1:
 E= -10352.4425319711     Delta-E=       -0.023288447781 Rises=F Damp=T
 DIIS: error= 4.47D-01 at cycle   2 NSaved=   2.
 NSaved= 2 IEnMin= 2 EnMin= -10352.4425319711     IErMin= 2 ErrMin= 4.47D-01
 ErrMax= 4.47D-01  0.00D+00 EMaxC= 1.00D-01 BMatC= 3.14D+00 BMatP= 4.20D+00
 IDIUse=3 WtCom= 0.00D+00 WtEn= 1.00D+00
 Coeff-Com: -0.617D+01 0.717D+01
 Coeff-En:   0.000D+00 0.100D+01
 Coeff:      0.000D+00 0.100D+01
 Gap=     0.023 Goal=   None    Shift=    0.000
 RMSDP=1.09D-02 MaxDP=3.29D-01 DE=-2.33D-02 OVMax= 0.00D+00

 Cycle   3  Pass 1  IDiag  1:
 E= -10352.4977718444     Delta-E=       -0.055239873249 Rises=F Damp=F
 DIIS: error= 3.48D-02 at cycle   3 NSaved=   3.
 NSaved= 3 IEnMin= 3 EnMin= -10352.4977718444     IErMin= 3 ErrMin= 3.48D-02
 ErrMax= 3.48D-02  0.00D+00 EMaxC= 1.00D-01 BMatC= 9.54D-02 BMatP= 3.14D+00
 IDIUse=3 WtCom= 6.52D-01 WtEn= 3.48D-01
 Large coefficients: NSaved=  3 BigCof=   20.21 CofMax=   10.00 Det=-1.68D-04
 Inversion failed.  Reducing to  2 matrices.
 Coeff-Com:  0.825D-01 0.917D+00
 Coeff-En:   0.201D+00 0.799D+00
 Coeff:      0.124D+00 0.876D+00
 Gap=     0.025 Goal=   None    Shift=    0.000
 RMSDP=6.41D-03 MaxDP=1.71D-01 DE=-5.52D-02 OVMax= 0.00D+00

 Cycle   4  Pass 1  IDiag  1:
 E= -10352.5131698680     Delta-E=       -0.015398023603 Rises=F Damp=F
 DIIS: error= 2.64D-02 at cycle   4 NSaved=   3.
 NSaved= 3 IEnMin= 3 EnMin= -10352.5131698680     IErMin= 3 ErrMin= 2.64D-02
 ErrMax= 2.64D-02  0.00D+00 EMaxC= 1.00D-01 BMatC= 6.03D-02 BMatP= 9.54D-02
 IDIUse=3 WtCom= 7.36D-01 WtEn= 2.64D-01
 Coeff-Com:  0.873D-02 0.448D+00 0.543D+00
 Coeff-En:   0.000D+00 0.402D+00 0.598D+00
 Coeff:      0.643D-02 0.436D+00 0.558D+00
 Gap=     0.024 Goal=   None    Shift=    0.000
 RMSDP=2.87D-03 MaxDP=7.26D-02 DE=-1.54D-02 OVMax= 0.00D+00

 Cycle   5  Pass 1  IDiag  1:
 E= -10352.5438871833     Delta-E=       -0.030717315351 Rises=F Damp=F
 DIIS: error= 9.16D-04 at cycle   5 NSaved=   4.
 NSaved= 4 IEnMin= 4 EnMin= -10352.5438871833     IErMin= 4 ErrMin= 9.16D-04
 ErrMax= 9.16D-04  0.00D+00 EMaxC= 1.00D-01 BMatC= 8.17D-05 BMatP= 6.03D-02
 IDIUse=3 WtCom= 9.91D-01 WtEn= 9.16D-03
 Coeff-Com:  0.255D-03 0.225D-01 0.611D-01 0.916D+00
 Coeff-En:   0.000D+00 0.000D+00 0.000D+00 0.100D+01
 Coeff:      0.253D-03 0.223D-01 0.606D-01 0.917D+00
 Gap=     0.024 Goal=   None    Shift=    0.000
 RMSDP=1.06D-04 MaxDP=2.50D-03 DE=-3.07D-02 OVMax= 0.00D+00

 Cycle   6  Pass 1  IDiag  1:
 E= -10352.5439316015     Delta-E=       -0.000044418177 Rises=F Damp=F
 DIIS: error= 2.66D-05 at cycle   6 NSaved=   5.
 NSaved= 5 IEnMin= 5 EnMin= -10352.5439316015     IErMin= 5 ErrMin= 2.66D-05
 ErrMax= 2.66D-05  0.00D+00 EMaxC= 1.00D-01 BMatC= 6.00D-08 BMatP= 8.17D-05
 IDIUse=1 WtCom= 1.00D+00 WtEn= 0.00D+00
 Coeff-Com: -0.207D-05-0.152D-03-0.147D-02-0.780D-02 0.101D+01
 Coeff:     -0.207D-05-0.152D-03-0.147D-02-0.780D-02 0.101D+01
 Gap=     0.024 Goal=   None    Shift=    0.000
 RMSDP=3.23D-06 MaxDP=7.66D-05 DE=-4.44D-05 OVMax= 0.00D+00

 Cycle   7  Pass 1  IDiag  1:
 E= -10352.5439316345     Delta-E=       -0.000000032947 Rises=F Damp=F
 DIIS: error= 1.19D-06 at cycle   7 NSaved=   6.
 NSaved= 6 IEnMin= 6 EnMin= -10352.5439316345     IErMin= 6 ErrMin= 1.19D-06
 ErrMax= 1.19D-06  0.00D+00 EMaxC= 1.00D-01 BMatC= 6.89D-11 BMatP= 6.00D-08
 IDIUse=1 WtCom= 1.00D+00 WtEn= 0.00D+00
 Coeff-Com: -0.164D-05-0.136D-03-0.558D-03-0.498D-02 0.208D+00 0.798D+00
 Coeff:     -0.164D-05-0.136D-03-0.558D-03-0.498D-02 0.208D+00 0.798D+00
 Gap=     0.024 Goal=   None    Shift=    0.000
 RMSDP=4.39D-07 MaxDP=5.59D-06 DE=-3.29D-08 OVMax= 0.00D+00

 Cycle   8  Pass 1  IDiag  1:
 E= -10352.5439316348     Delta-E=       -0.000000000289 Rises=F Damp=F
 DIIS: error= 2.00D-07 at cycle   8 NSaved=   7.
 NSaved= 7 IEnMin= 7 EnMin= -10352.5439316348     IErMin= 7 ErrMin= 2.00D-07
 ErrMax= 2.00D-07  0.00D+00 EMaxC= 1.00D-01 BMatC= 1.87D-12 BMatP= 6.89D-11
 IDIUse=1 WtCom= 1.00D+00 WtEn= 0.00D+00
 Coeff-Com:  0.364D-07 0.300D-05 0.804D-04 0.481D-03-0.568D-01 0.137D-01
 Coeff-Com:  0.104D+01
 Coeff:      0.364D-07 0.300D-05 0.804D-04 0.481D-03-0.568D-01 0.137D-01
 Coeff:      0.104D+01
 Gap=     0.024 Goal=   None    Shift=    0.000
 RMSDP=8.94D-08 MaxDP=1.19D-06 DE=-2.89D-10 OVMax= 0.00D+00

 Cycle   9  Pass 1  IDiag  1:
 E= -10352.5439316348     Delta-E=       -0.000000000005 Rises=F Damp=F
 DIIS: error= 7.67D-09 at cycle   9 NSaved=   8.
 NSaved= 8 IEnMin= 8 EnMin= -10352.5439316348     IErMin= 8 ErrMin= 7.67D-09
 ErrMax= 7.67D-09  0.00D+00 EMaxC= 1.00D-01 BMatC= 4.51D-15 BMatP= 1.87D-12
 IDIUse=1 WtCom= 1.00D+00 WtEn= 0.00D+00
 Coeff-Com:  0.871D-08 0.668D-06 0.591D-06-0.226D-04-0.461D-03-0.329D-02
 Coeff-Com: -0.795D-02 0.101D+01
 Coeff:      0.871D-08 0.668D-06 0.591D-06-0.226D-04-0.461D-03-0.329D-02
 Coeff:     -0.795D-02 0.101D+01
 Gap=     0.024 Goal=   None    Shift=    0.000
 RMSDP=3.51D-09 MaxDP=5.27D-08 DE=-5.46D-12 OVMax= 0.00D+00

 SCF Done:  E(RB3LYP) =  -10352.5439316     A.U. after    9 cycles
            NFock=  9  Conv=0.35D-08     -V/T= 2.0046
 KE= 1.030497501183D+04 PE=-2.501079749512D+04 EE= 4.158453142700D+03
 Leave Link  502 at Sun Oct 19 14:19:26 2025, MaxMem=    33554432 cpu:         0.0
 (Enter C:\G09W\l601.exe)
 Copying SCF densities to generalized density rwf, IOpCl= 0 IROHF=0.

 **********************************************************************

            Population analysis using the SCF density.

 **********************************************************************

 Orbital symmetries:
       Occupied  (SGU) (SGG) (SGG) (SGU) (SGG) (PIG) (PIG) (SGU)
                 (PIU) (PIU) (SGU) (SGG) (PIG) (PIG) (PIU) (PIU)
                 (SGG) (SGU) (DLTG) (DLTG) (DLTU) (DLTU) (PIG)
                 (PIG) (PIU) (PIU) (SGU) (SGG) (SGG) (SGU) (PIG)
                 (PIG) (SGG) (PIU) (PIU) (SGU) (SGU) (DLTG) (DLTG)
                 (DLTU) (DLTU) (PIU) (PIU) (PIG) (PIG) (SGG) (SGG)
       Virtual   (SGU) (SGG) (PIU) (PIU) (PIG) (PIG) (SGU) (SGG)
                 (SGU) (PIU) (PIU) (PIG) (PIG) (SGU) (SGG) (SGG)
                 (SGU) (DLTG) (DLTG) (DLTU) (DLTU) (PIU) (PIU)
                 (PIG) (PIG) (SGG) (SGU) (SGG) (SGU) (SGU) (SGG)
 The electronic state is 1-SGG.
 Alpha  occ. eigenvalues -- -898.83649-898.83648-130.55661-130.55661-121.05839
 Alpha  occ. eigenvalues -- -121.05838-121.05838-121.05837-121.05837-121.05837
 Alpha  occ. eigenvalues --  -24.16169 -24.16169 -20.12887 -20.12887 -20.12887
 Alpha  occ. eigenvalues --  -20.12887 -20.12877 -20.12876 -13.63126 -13.63126
 Alpha  occ. eigenvalues --  -13.63126 -13.63126 -13.63119 -13.63119 -13.63119
 Alpha  occ. eigenvalues --  -13.63119 -13.63116 -13.63116  -3.33714  -3.33714
 Alpha  occ. eigenvalues --   -2.06021  -2.06021  -2.06019  -2.06018  -2.06018
 Alpha  occ. eigenvalues --   -2.06013  -0.29455  -0.29453  -0.29453  -0.29453
 Alpha  occ. eigenvalues --   -0.29453  -0.29444  -0.29444  -0.29443  -0.29443
 Alpha  occ. eigenvalues --   -0.29440  -0.14341
 Alpha virt. eigenvalues --   -0.11936  -0.01773  -0.01198  -0.01198  -0.00130
 Alpha virt. eigenvalues --   -0.00130   0.01319   0.08244   0.10739   0.15256
 Alpha virt. eigenvalues --    0.15256   0.16476   0.16476   0.17306   0.17613
 Alpha virt. eigenvalues --    0.71584   0.72452   1.31246   1.31246   1.31247
 Alpha virt. eigenvalues --    1.31247   1.31278   1.31278   1.31279   1.31279
 Alpha virt. eigenvalues --    1.31356   1.31597   4.44431   4.44865 195.50187
 Alpha virt. eigenvalues --  195.50202
          Condensed to atoms (all electrons):
               1          2
     1  Ag  46.945771   0.054229
     2  Ag   0.054229  46.945771
 Mulliken charges:
               1
     1  Ag   0.000000
     2  Ag   0.000000
 Sum of Mulliken charges =   0.00000
 Mulliken charges with hydrogens summed into heavy atoms:
               1
     1  Ag   0.000000
     2  Ag   0.000000
 Electronic spatial extent (au):  <R**2>=           3113.6189
 Charge=              0.0000 electrons
 Dipole moment (field-independent basis, Debye):
    X=              0.0000    Y=              0.0000    Z=              0.0000  Tot=              0.0000
 Quadrupole moment (field-independent basis, Debye-Ang):
   XX=            -43.6413   YY=            -43.6413   ZZ=            -37.1305
   XY=              0.0000   XZ=              0.0000   YZ=              0.0000
 Traceless Quadrupole moment (field-independent basis, Debye-Ang):
   XX=             -2.1703   YY=             -2.1703   ZZ=              4.3405
   XY=              0.0000   XZ=              0.0000   YZ=              0.0000
 Octapole moment (field-independent basis, Debye-Ang**2):
  XXX=              0.0000  YYY=              0.0000  ZZZ=              0.0000  XYY=              0.0000
  XXY=              0.0000  XXZ=              0.0000  XZZ=              0.0000  YZZ=              0.0000
  YYZ=              0.0000  XYZ=              0.0000
 Hexadecapole moment (field-independent basis, Debye-Ang**3):
 XXXX=            -74.6928 YYYY=            -74.6928 ZZZZ=          -2283.5943 XXXY=              0.0000
 XXXZ=              0.0000 YYYX=              0.0000 YYYZ=              0.0000 ZZZX=              0.0000
 ZZZY=              0.0000 XXYY=            -24.8976 XXZZ=           -406.4277 YYZZ=           -406.4277
 XXYZ=              0.0000 YYXZ=              0.0000 ZZXY=              0.0000
 N-N= 1.948254089626D+02 E-N=-2.501079749235D+04  KE= 1.030497501183D+04
 Symmetry AG   KE= 3.568105628796D+03
 Symmetry B1G  KE= 1.263213245264D+02
 Symmetry B2G  KE= 7.294889254256D+02
 Symmetry B3G  KE= 7.294889254256D+02
 Symmetry AU   KE= 1.263213552726D+02
 Symmetry B1U  KE= 3.566251083215D+03
 Symmetry B2U  KE= 7.294988845832D+02
 Symmetry B3U  KE= 7.294988845832D+02
 No NMR shielding tensors so no spin-rotation constants.
 Leave Link  601 at Sun Oct 19 14:19:26 2025, MaxMem=    33554432 cpu:         0.0
 (Enter C:\G09W\l9999.exe)
 1|1|UNPC-PRO|SP|RB3LYP|3-21G|Ag2|INANI|19-Oct-2025|0||#p b3lyp/3-21g||
 Title Card Required||0,1|Ag,0,0.,0.,6.|Ag,0,0.,0.,0.||Version=IA32W-G0
 9RevD.01|State=1-SGG|HF=-10352.5439316|RMSD=3.507e-009|Dipole=0.,0.,0.
 |Quadrupole=-1.6135311,-1.6135311,3.2270621,0.,0.,0.|PG=D*H [C*(Ag1.Ag
 1)]||@


 THE REASON MAN'S BEST FRIEND IS A DOG IS BECAUSE
 HE WAGS HIS TAIL INSTEAD OF HIS TONGUE.
 Job cpu time:       0 days  0 hours  0 minutes  1.0 seconds.
 File lengths (MBytes):  RWF=      5 Int=      0 D2E=      0 Chk=      1 Scr=      1
 Normal termination of Gaussian 09 at Sun Oct 19 14:19:26 2025.
