 Entering Link 1 = C:\G09W\l1.exe PID=     14048.
  
 Copyright (c) 1988,1990,1992,1993,1995,1998,2003,2009,2013,
            Gaussian, Inc.  All Rights Reserved.
  
 This is part of the Gaussian(R) 09 program.  It is based on
 the Gaussian(R) 03 system (copyright 2003, Gaussian, Inc.),
 the Gaussian(R) 98 system (copyright 1998, Gaussian, Inc.),
 the Gaussian(R) 94 system (copyright 1995, Gaussian, Inc.),
 the Gaussian 92(TM) system (copyright 1992, Gaussian, Inc.),
 the Gaussian 90(TM) system (copyright 1990, Gaussian, Inc.),
 the Gaussian 88(TM) system (copyright 1988, Gaussian, Inc.),
 the Gaussian 86(TM) system (copyright 1986, Carnegie Mellon
 University), and the Gaussian 82(TM) system (copyright 1983,
 Carnegie Mellon University). Gaussian is a federally registered
 trademark of Gaussian, Inc.
  
 This software contains proprietary and confidential information,
 including trade secrets, belonging to Gaussian, Inc.
  
 This software is provided under written license and may be
 used, copied, transmitted, or stored only in accord with that
 written license.
  
 The following legend is applicable only to US Government
 contracts under FAR:
  
                    RESTRICTED RIGHTS LEGEND
  
 Use, reproduction and disclosure by the US Government is
 subject to restrictions as set forth in subparagraphs (a)
 and (c) of the Commercial Computer Software - Restricted
 Rights clause in FAR 52.227-19.
  
 Gaussian, Inc.
 340 Quinnipiac St., Bldg. 40, Wallingford CT 06492
  
  
 ---------------------------------------------------------------
 Warning -- This program may not be used in any manner that
 competes with the business of Gaussian, Inc. or will provide
 assistance to any competitor of Gaussian, Inc.  The licensee
 of this program is prohibited from giving any competitor of
 Gaussian, Inc. access to this program.  By using this program,
 the user acknowledges that Gaussian, Inc. is engaged in the
 business of creating and licensing software in the field of
 computational chemistry and represents and warrants to the
 licensee that it is not a competitor of Gaussian, Inc. and that
 it will not use this program in any manner prohibited above.
 ---------------------------------------------------------------
  

 Cite this work as:
 Gaussian 09, Revision D.01,
 M. J. Frisch, G. W. Trucks, H. B. Schlegel, G. E. Scuseria, 
 M. A. Robb, J. R. Cheeseman, G. Scalmani, V. Barone, B. Mennucci, 
 G. A. Petersson, H. Nakatsuji, M. Caricato, X. Li, H. P. Hratchian, 
 A. F. Izmaylov, J. Bloino, G. Zheng, J. L. Sonnenberg, M. Hada, 
 M. Ehara, K. Toyota, R. Fukuda, J. Hasegawa, M. Ishida, T. Nakajima, 
 Y. Honda, O. Kitao, H. Nakai, T. Vreven, J. A. Montgomery, Jr., 
 J. E. Peralta, F. Ogliaro, M. Bearpark, J. J. Heyd, E. Brothers, 
 K. N. Kudin, V. N. Staroverov, T. Keith, R. Kobayashi, J. Normand, 
 K. Raghavachari, A. Rendell, J. C. Burant, S. S. Iyengar, J. Tomasi, 
 M. Cossi, N. Rega, J. M. Millam, M. Klene, J. E. Knox, J. B. Cross, 
 V. Bakken, C. Adamo, J. Jaramillo, R. Gomperts, R. E. Stratmann, 
 O. Yazyev, A. J. Austin, R. Cammi, C. Pomelli, J. W. Ochterski, 
 R. L. Martin, K. Morokuma, V. G. Zakrzewski, G. A. Voth, 
 P. Salvador, J. J. Dannenberg, S. Dapprich, A. D. Daniels, 
 O. Farkas, J. B. Foresman, J. V. Ortiz, J. Cioslowski, 
 and D. J. Fox, Gaussian, Inc., Wallingford CT, 2013.
 
 ******************************************
 Gaussian 09:  IA32W-G09RevD.01 24-Apr-2013
                19-Oct-2025 
 ******************************************
 %chk=C:\Users\inani\Documents\AG\AG.chk
 --------------
 #p b3lyp/3-21g
 --------------
 1/38=1/1;
 2/12=2,17=6,18=5,40=1/2;
 3/5=5,11=2,16=1,25=1,30=1,74=-5/1,2,3;
 4//1;
 5/5=2,38=5/2;
 6/7=2,8=2,9=2,10=2,28=1/1;
 99/5=1,9=1/99;
 Leave Link    1 at Sun Oct 19 14:19:01 2025, MaxMem=           0 cpu:         0.0
 (Enter C:\G09W\l101.exe)
 -------------------
 Title Card Required
 -------------------
 Symbolic Z-matrix:
 Charge =  0 Multiplicity = 1
 Ag                    0.        0.        1.75 
 Ag                    0.        0.        0. 
 
 NAtoms=      2 NQM=        2 NQMF=       0 NMMI=      0 NMMIF=      0
                NMic=       0 NMicF=      0.
                    Isotopes and Nuclear Properties:
 (Nuclear quadrupole moments (NQMom) in fm**2, nuclear magnetic moments (NMagM)
  in nuclear magnetons)

  Atom         1           2
 IAtWgt=         107         107
 AtmWgt= 106.9050900 106.9050900
 NucSpn=           1           1
 AtZEff=   0.0000000   0.0000000
 NQMom=    0.0000000   0.0000000
 NMagM=   -0.1135700  -0.1135700
 AtZNuc=  47.0000000  47.0000000
 Leave Link  101 at Sun Oct 19 14:19:01 2025, MaxMem=    33554432 cpu:         0.0
 (Enter C:\G09W\l202.exe)
                          Input orientation:                          
 ---------------------------------------------------------------------
 Center     Atomic      Atomic             Coordinates (Angstroms)
 Number     Number       Type             X           Y           Z
 ---------------------------------------------------------------------
      1         47           0        0.000000    0.000000    1.750000
      2         47           0        0.000000    0.000000    0.000000
 ---------------------------------------------------------------------
 Stoichiometry    Ag2
 Framework group  D*H[C*(Ag.Ag)]
 Deg. of freedom     1
 Full point group                 D*H     NOp   8
 Largest Abelian subgroup         D2H     NOp   8
 Largest concise Abelian subgroup C2      NOp   2
                         Standard orientation:                         
 ---------------------------------------------------------------------
 Center     Atomic      Atomic             Coordinates (Angstroms)
 Number     Number       Type             X           Y           Z
 ---------------------------------------------------------------------
      1         47           0        0.000000    0.000000    0.875000
      2         47           0        0.000000    0.000000   -0.875000
 ---------------------------------------------------------------------
 Rotational constants (GHZ):      0.0000000      3.0872565      3.0872565
 Leave Link  202 at Sun Oct 19 14:19:01 2025, MaxMem=    33554432 cpu:         0.0
 (Enter C:\G09W\l301.exe)
 Standard basis: 3-21G (6D, 7F)
 Ernie: Thresh=  0.10000D-02 Tol=  0.10000D-05 Strict=F.
 There are    20 symmetry adapted cartesian basis functions of AG  symmetry.
 There are     3 symmetry adapted cartesian basis functions of B1G symmetry.
 There are     8 symmetry adapted cartesian basis functions of B2G symmetry.
 There are     8 symmetry adapted cartesian basis functions of B3G symmetry.
 There are     3 symmetry adapted cartesian basis functions of AU  symmetry.
 There are    20 symmetry adapted cartesian basis functions of B1U symmetry.
 There are     8 symmetry adapted cartesian basis functions of B2U symmetry.
 There are     8 symmetry adapted cartesian basis functions of B3U symmetry.
 There are    20 symmetry adapted basis functions of AG  symmetry.
 There are     3 symmetry adapted basis functions of B1G symmetry.
 There are     8 symmetry adapted basis functions of B2G symmetry.
 There are     8 symmetry adapted basis functions of B3G symmetry.
 There are     3 symmetry adapted basis functions of AU  symmetry.
 There are    20 symmetry adapted basis functions of B1U symmetry.
 There are     8 symmetry adapted basis functions of B2U symmetry.
 There are     8 symmetry adapted basis functions of B3U symmetry.
    78 basis functions,   174 primitive gaussians,    78 cartesian basis functions
    47 alpha electrons       47 beta electrons
       nuclear repulsion energy       667.9728307287 Hartrees.
 IExCor=  402 DFT=T Ex+Corr=B3LYP ExCW=0 ScaHFX=  0.200000
 ScaDFX=  0.800000  0.720000  1.000000  0.810000 ScalE2=  1.000000  1.000000
 IRadAn=      0 IRanWt=     -1 IRanGd=            0 ICorTp=0 IEmpDi=  4
 NAtoms=    2 NActive=    2 NUniq=    1 SFac= 4.00D+00 NAtFMM=   60 NAOKFM=F Big=F
 Integral buffers will be    262144 words long.
 Raffenetti 2 integral format.
 Two-electron integral symmetry is turned on.
 Leave Link  301 at Sun Oct 19 14:19:01 2025, MaxMem=    33554432 cpu:         0.0
 (Enter C:\G09W\l302.exe)
 NPDir=0 NMtPBC=     1 NCelOv=     1 NCel=       1 NClECP=     1 NCelD=      1
         NCelK=      1 NCelE2=     1 NClLst=     1 CellRange=     0.0.
 One-electron integrals computed using PRISM.
 One-electron integral symmetry used in STVInt
 NBasis=    78 RedAO= T EigKep=  5.82D-04  NBF=    20     3     8     8     3    20     8     8
 NBsUse=    78 1.00D-06 EigRej= -1.00D+00 NBFU=    20     3     8     8     3    20     8     8
 Precomputing XC quadrature grid using
 IXCGrd= 4 IRadAn=           0 IRanWt=          -1 IRanGd=           0 AccXCQ= 0.00D+00.
 Defaulting to unpruned grid for atomic number  47.
 Generated NRdTot=       0 NPtTot=           0 NUsed=           0 NTot=          16
 NSgBfM=    72    72    72    72    72 MxSgAt=     2 MxSgA2=     2.
 Leave Link  302 at Sun Oct 19 14:19:01 2025, MaxMem=    33554432 cpu:         0.0
 (Enter C:\G09W\l303.exe)
 DipDrv:  MaxL=1.
 Leave Link  303 at Sun Oct 19 14:19:01 2025, MaxMem=    33554432 cpu:         0.0
 (Enter C:\G09W\l401.exe)
 ExpMin= 3.49D-02 ExpMax= 1.12D+04 ExpMxC= 1.12D+04 IAcc=3 IRadAn=         5 AccDes= 0.00D+00
 Harris functional with IExCor=  402 and IRadAn=       5 diagonalized for initial guess.
 HarFok:  IExCor=  402 AccDes= 0.00D+00 IRadAn=         5 IDoV= 1 UseB2=F ITyADJ=14
 ICtDFT=  3500011 ScaDFX=  1.000000  1.000000  1.000000  1.000000
 Defaulting to unpruned grid for atomic number  47.
 FoFCou: FMM=F IPFlag=           0 FMFlag=      100000 FMFlg1=           0
         NFxFlg=           0 DoJE=T BraDBF=F KetDBF=T FulRan=T
         wScrn=  0.000000 ICntrl=     500 IOpCl=  0 I1Cent=   200000004 NGrid=           0
         NMat0=    1 NMatS0=      1 NMatT0=    0 NMatD0=    1 NMtDS0=    0 NMtDT0=    0
 Petite list used in FoFCou.
 Harris En= -10353.3655588745    
 JPrj=0 DoOrth=F DoCkMO=F.
 Initial guess orbital symmetries:
       Occupied  (SGG) (SGU) (SGG) (SGU) (SGU) (SGG) (PIU) (PIU)
                 (PIG) (PIG) (SGU) (SGG) (SGU) (SGG) (PIG) (PIG)
                 (PIU) (PIU) (SGG) (SGU) (PIG) (PIG) (PIU) (PIU)
                 (DLTU) (DLTU) (DLTG) (DLTG) (SGG) (SGU) (SGG)
                 (PIU) (PIU) (PIG) (PIG) (SGU) (SGG) (PIU) (PIU)
                 (DLTG) (DLTG) (DLTU) (DLTU) (SGG) (PIG) (PIG)
                 (SGU)
       Virtual   (SGU) (PIU) (PIU) (SGG) (PIG) (PIG) (SGG) (SGU)
                 (PIU) (PIU) (SGU) (SGG) (PIG) (PIG) (SGU) (SGG)
                 (SGU) (DLTG) (DLTG) (PIU) (PIU) (DLTU) (DLTU)
                 (SGU) (PIG) (PIG) (SGG) (SGU) (SGG) (SGU) (SGG)
 The electronic state of the initial guess is 1-SGG.
 Leave Link  401 at Sun Oct 19 14:19:02 2025, MaxMem=    33554432 cpu:         1.0
 (Enter C:\G09W\l502.exe)
 Closed shell SCF:
 Using DIIS extrapolation, IDIIS=  1040.
 Integral symmetry usage will be decided dynamically.
 Keep R1 ints in memory in symmetry-blocked form, NReq=5685550.
 IVT=       37753 IEndB=       37753 NGot=    33554432 MDV=    32866241
 LenX=    32866241 LenY=    32859716
 Requested convergence on RMS density matrix=1.00D-08 within 128 cycles.
 Requested convergence on MAX density matrix=1.00D-06.
 Requested convergence on             energy=1.00D-06.
 No special actions if energy rises.
 FoFCou: FMM=F IPFlag=           0 FMFlag=           0 FMFlg1=           0
         NFxFlg=           0 DoJE=F BraDBF=F KetDBF=F FulRan=T
         wScrn=  0.000000 ICntrl=     600 IOpCl=  0 I1Cent=           0 NGrid=           0
         NMat0=    1 NMatS0=   3081 NMatT0=    0 NMatD0=    1 NMtDS0=    0 NMtDT0=    0
 Petite list used in FoFCou.

 Cycle   1  Pass 1  IDiag  1:
 Defaulting to unpruned grid for atomic number  47.
 E= -10351.9961187385    
 DIIS: error= 5.04D-01 at cycle   1 NSaved=   1.
 NSaved= 1 IEnMin= 1 EnMin= -10351.9961187385     IErMin= 1 ErrMin= 5.04D-01
 ErrMax= 5.04D-01  0.00D+00 EMaxC= 1.00D-01 BMatC= 4.42D+00 BMatP= 4.42D+00
 IDIUse=3 WtCom= 0.00D+00 WtEn= 1.00D+00
 Coeff-Com:  0.100D+01
 Coeff-En:   0.100D+01
 Coeff:      0.100D+01
 Gap=     0.150 Goal=   None    Shift=    0.000
 GapD=    0.150 DampG=1.000 DampE=0.125 DampFc=0.1250 IDamp=-1.
 Damping current iteration by 1.25D-01
 RMSDP=6.06D-02 MaxDP=9.06D-01              OVMax= 0.00D+00

 Cycle   2  Pass 1  IDiag  1:
 E= -10352.0489854054     Delta-E=       -0.052866666865 Rises=F Damp=T
 DIIS: error= 4.38D-01 at cycle   2 NSaved=   2.
 NSaved= 2 IEnMin= 2 EnMin= -10352.0489854054     IErMin= 2 ErrMin= 4.38D-01
 ErrMax= 4.38D-01  0.00D+00 EMaxC= 1.00D-01 BMatC= 3.25D+00 BMatP= 4.42D+00
 IDIUse=3 WtCom= 0.00D+00 WtEn= 1.00D+00
 Coeff-Com: -0.540D+01 0.640D+01
 Coeff-En:   0.000D+00 0.100D+01
 Coeff:      0.000D+00 0.100D+01
 Gap=     0.165 Goal=   None    Shift=    0.000
 RMSDP=4.92D-02 MaxDP=7.51D-01 DE=-5.29D-02 OVMax= 0.00D+00

 Cycle   3  Pass 1  IDiag  1:
 E= -10352.0711140922     Delta-E=       -0.022128686815 Rises=F Damp=F
 DIIS: error= 6.04D-02 at cycle   3 NSaved=   3.
 NSaved= 3 IEnMin= 3 EnMin= -10352.0711140922     IErMin= 3 ErrMin= 6.04D-02
 ErrMax= 6.04D-02  0.00D+00 EMaxC= 1.00D-01 BMatC= 2.87D-01 BMatP= 3.25D+00
 IDIUse=3 WtCom= 3.96D-01 WtEn= 6.04D-01
 Large coefficients: NSaved=  3 BigCof=   13.07 CofMax=   10.00 Det=-7.32D-04
 Inversion failed.  Reducing to  2 matrices.
 Coeff-Com:  0.153D+00 0.847D+00
 Coeff-En:   0.463D+00 0.537D+00
 Coeff:      0.340D+00 0.660D+00
 Gap=     0.107 Goal=   None    Shift=    0.000
 RMSDP=4.62D-02 MaxDP=6.88D-01 DE=-2.21D-02 OVMax= 0.00D+00

 Cycle   4  Pass 1  IDiag  1:
 E= -10352.1824144641     Delta-E=       -0.111300371918 Rises=F Damp=F
 DIIS: error= 3.09D-02 at cycle   4 NSaved=   3.
 NSaved= 3 IEnMin= 3 EnMin= -10352.1824144641     IErMin= 3 ErrMin= 3.09D-02
 ErrMax= 3.09D-02  0.00D+00 EMaxC= 1.00D-01 BMatC= 8.30D-02 BMatP= 2.87D-01
 IDIUse=3 WtCom= 6.91D-01 WtEn= 3.09D-01
 Coeff-Com:  0.952D-02 0.353D+00 0.638D+00
 Coeff-En:   0.000D+00 0.250D+00 0.750D+00
 Coeff:      0.657D-02 0.321D+00 0.673D+00
 Gap=     0.144 Goal=   None    Shift=    0.000
 RMSDP=2.86D-02 MaxDP=5.10D-01 DE=-1.11D-01 OVMax= 0.00D+00

 Cycle   5  Pass 1  IDiag  1:
 E= -10352.2310348386     Delta-E=       -0.048620374477 Rises=F Damp=F
 DIIS: error= 5.16D-03 at cycle   5 NSaved=   4.
 NSaved= 4 IEnMin= 4 EnMin= -10352.2310348386     IErMin= 4 ErrMin= 5.16D-03
 ErrMax= 5.16D-03  0.00D+00 EMaxC= 1.00D-01 BMatC= 2.32D-03 BMatP= 8.30D-02
 IDIUse=3 WtCom= 9.48D-01 WtEn= 5.16D-02
 Coeff-Com: -0.556D-03-0.235D-01 0.110D+00 0.914D+00
 Coeff-En:   0.000D+00 0.000D+00 0.000D+00 0.100D+01
 Coeff:     -0.528D-03-0.223D-01 0.104D+00 0.918D+00
 Gap=     0.142 Goal=   None    Shift=    0.000
 RMSDP=3.47D-03 MaxDP=5.12D-02 DE=-4.86D-02 OVMax= 0.00D+00

 Cycle   6  Pass 1  IDiag  1:
 E= -10352.2324903449     Delta-E=       -0.001455506324 Rises=F Damp=F
 DIIS: error= 4.35D-04 at cycle   6 NSaved=   5.
 NSaved= 5 IEnMin= 5 EnMin= -10352.2324903449     IErMin= 5 ErrMin= 4.35D-04
 ErrMax= 4.35D-04  0.00D+00 EMaxC= 1.00D-01 BMatC= 1.78D-05 BMatP= 2.32D-03
 IDIUse=3 WtCom= 9.96D-01 WtEn= 4.35D-03
 Coeff-Com: -0.809D-04-0.242D-02-0.107D-01 0.458D-01 0.967D+00
 Coeff-En:   0.000D+00 0.000D+00 0.000D+00 0.000D+00 0.100D+01
 Coeff:     -0.806D-04-0.241D-02-0.106D-01 0.456D-01 0.968D+00
 Gap=     0.143 Goal=   None    Shift=    0.000
 RMSDP=4.06D-04 MaxDP=6.43D-03 DE=-1.46D-03 OVMax= 0.00D+00

 Cycle   7  Pass 1  IDiag  1:
 E= -10352.2325042248     Delta-E=       -0.000013879926 Rises=F Damp=F
 DIIS: error= 2.82D-05 at cycle   7 NSaved=   6.
 NSaved= 6 IEnMin= 6 EnMin= -10352.2325042248     IErMin= 6 ErrMin= 2.82D-05
 ErrMax= 2.82D-05  0.00D+00 EMaxC= 1.00D-01 BMatC= 8.15D-08 BMatP= 1.78D-05
 IDIUse=1 WtCom= 1.00D+00 WtEn= 0.00D+00
 Coeff-Com:  0.167D-05 0.166D-03-0.279D-02-0.165D-01 0.805D-01 0.939D+00
 Coeff:      0.167D-05 0.166D-03-0.279D-02-0.165D-01 0.805D-01 0.939D+00
 Gap=     0.143 Goal=   None    Shift=    0.000
 RMSDP=2.01D-05 MaxDP=2.32D-04 DE=-1.39D-05 OVMax= 0.00D+00

 Cycle   8  Pass 1  IDiag  1:
 E= -10352.2325043541     Delta-E=       -0.000000129301 Rises=F Damp=F
 DIIS: error= 5.18D-06 at cycle   8 NSaved=   7.
 NSaved= 7 IEnMin= 7 EnMin= -10352.2325043541     IErMin= 7 ErrMin= 5.18D-06
 ErrMax= 5.18D-06  0.00D+00 EMaxC= 1.00D-01 BMatC= 2.46D-09 BMatP= 8.15D-08
 IDIUse=1 WtCom= 1.00D+00 WtEn= 0.00D+00
 Coeff-Com:  0.587D-06 0.116D-04 0.316D-03-0.195D-02-0.357D-01-0.813D-01
 Coeff-Com:  0.112D+01
 Coeff:      0.587D-06 0.116D-04 0.316D-03-0.195D-02-0.357D-01-0.813D-01
 Coeff:      0.112D+01
 Gap=     0.143 Goal=   None    Shift=    0.000
 RMSDP=4.10D-06 MaxDP=5.13D-05 DE=-1.29D-07 OVMax= 0.00D+00

 Cycle   9  Pass 1  IDiag  1:
 E= -10352.2325043589     Delta-E=       -0.000000004735 Rises=F Damp=F
 DIIS: error= 1.55D-07 at cycle   9 NSaved=   8.
 NSaved= 8 IEnMin= 8 EnMin= -10352.2325043589     IErMin= 8 ErrMin= 1.55D-07
 ErrMax= 1.55D-07  0.00D+00 EMaxC= 1.00D-01 BMatC= 3.45D-12 BMatP= 2.46D-09
 IDIUse=1 WtCom= 1.00D+00 WtEn= 0.00D+00
 Coeff-Com:  0.207D-06 0.953D-05-0.356D-06 0.103D-03 0.157D-02-0.668D-02
 Coeff-Com: -0.197D-01 0.102D+01
 Coeff:      0.207D-06 0.953D-05-0.356D-06 0.103D-03 0.157D-02-0.668D-02
 Coeff:     -0.197D-01 0.102D+01
 Gap=     0.143 Goal=   None    Shift=    0.000
 RMSDP=5.05D-07 MaxDP=8.81D-06 DE=-4.73D-09 OVMax= 0.00D+00

 Cycle  10  Pass 1  IDiag  1:
 E= -10352.2325043590     Delta-E=       -0.000000000078 Rises=F Damp=F
 DIIS: error= 6.31D-08 at cycle  10 NSaved=   9.
 NSaved= 9 IEnMin= 9 EnMin= -10352.2325043590     IErMin= 9 ErrMin= 6.31D-08
 ErrMax= 6.31D-08  0.00D+00 EMaxC= 1.00D-01 BMatC= 3.31D-13 BMatP= 3.45D-12
 IDIUse=1 WtCom= 1.00D+00 WtEn= 0.00D+00
 Coeff-Com: -0.414D-08-0.236D-06-0.428D-06 0.222D-04 0.114D-03 0.388D-03
 Coeff-Com: -0.290D-02-0.262D-01 0.103D+01
 Coeff:     -0.414D-08-0.236D-06-0.428D-06 0.222D-04 0.114D-03 0.388D-03
 Coeff:     -0.290D-02-0.262D-01 0.103D+01
 Gap=     0.143 Goal=   None    Shift=    0.000
 RMSDP=3.65D-08 MaxDP=7.17D-07 DE=-7.82D-11 OVMax= 0.00D+00

 Cycle  11  Pass 1  IDiag  1:
 E= -10352.2325043589     Delta-E=        0.000000000095 Rises=F Damp=F
 DIIS: error= 9.70D-10 at cycle  11 NSaved=  10.
 NSaved=10 IEnMin= 9 EnMin= -10352.2325043590     IErMin=10 ErrMin= 9.70D-10
 ErrMax= 9.70D-10  0.00D+00 EMaxC= 1.00D-01 BMatC= 1.09D-16 BMatP= 3.31D-13
 IDIUse=1 WtCom= 1.00D+00 WtEn= 0.00D+00
 Large coefficients: NSaved= 10 BigCof=    0.00 CofMax=   10.00 Det=-1.79D-15
 Inversion failed.  Reducing to  9 matrices.
 Coeff-Com: -0.353D-07 0.728D-07-0.987D-06-0.135D-04 0.125D-04-0.309D-04
 Coeff-Com: -0.300D-02-0.354D-01 0.104D+01
 Coeff:     -0.353D-07 0.728D-07-0.987D-06-0.135D-04 0.125D-04-0.309D-04
 Coeff:     -0.300D-02-0.354D-01 0.104D+01
 Gap=     0.143 Goal=   None    Shift=    0.000
 RMSDP=2.83D-09 MaxDP=4.90D-08 DE= 9.46D-11 OVMax= 0.00D+00

 SCF Done:  E(RB3LYP) =  -10352.2325044     A.U. after   11 cycles
            NFock= 11  Conv=0.28D-08     -V/T= 2.0043
 KE= 1.030791044788D+04 PE=-2.595424690490D+04 EE= 4.626131121928D+03
 Leave Link  502 at Sun Oct 19 14:19:03 2025, MaxMem=    33554432 cpu:         1.0
 (Enter C:\G09W\l601.exe)
 Copying SCF densities to generalized density rwf, IOpCl= 0 IROHF=0.

 **********************************************************************

            Population analysis using the SCF density.

 **********************************************************************

 Orbital symmetries:
       Occupied  (SGG) (SGU) (SGU) (SGG) (SGU) (SGG) (PIU) (PIU)
                 (PIG) (PIG) (SGU) (SGG) (SGU) (SGG) (PIG) (PIG)
                 (PIU) (PIU) (SGG) (SGU) (PIG) (PIG) (PIU) (PIU)
                 (DLTU) (DLTU) (DLTG) (DLTG) (SGG) (SGU) (SGG)
                 (PIU) (PIU) (PIG) (PIG) (SGU) (SGG) (PIU) (PIU)
                 (DLTG) (DLTG) (DLTU) (DLTU) (PIG) (PIG) (SGU)
                 (SGG)
       Virtual   (SGU) (PIU) (PIU) (SGG) (PIG) (PIG) (SGU) (SGG)
                 (PIU) (PIU) (SGU) (SGG) (PIG) (PIG) (SGU) (SGG)
                 (SGU) (DLTG) (DLTG) (PIU) (PIU) (DLTU) (DLTU)
                 (SGU) (PIG) (PIG) (SGG) (SGU) (SGG) (SGU) (SGG)
 The electronic state is 1-SGG.
 Alpha  occ. eigenvalues -- -898.87001-898.86961-130.59465-130.59465-121.09741
 Alpha  occ. eigenvalues -- -121.09641-121.09534-121.09534-121.09528-121.09528
 Alpha  occ. eigenvalues --  -24.20922 -24.20919 -20.17944 -20.17913 -20.17436
 Alpha  occ. eigenvalues --  -20.17436 -20.17435 -20.17435 -13.67988 -13.67945
 Alpha  occ. eigenvalues --  -13.67833 -13.67833 -13.67814 -13.67814 -13.67540
 Alpha  occ. eigenvalues --  -13.67540 -13.67517 -13.67516  -3.44087  -3.38625
 Alpha  occ. eigenvalues --   -2.25932  -2.13449  -2.13449  -2.10462  -2.10462
 Alpha  occ. eigenvalues --   -2.06970  -0.49552  -0.48358  -0.48358  -0.37076
 Alpha  occ. eigenvalues --   -0.37076  -0.31535  -0.31535  -0.26127  -0.26127
 Alpha  occ. eigenvalues --   -0.23261  -0.20051
 Alpha virt. eigenvalues --   -0.05794  -0.03211  -0.03211   0.02289   0.04888
 Alpha virt. eigenvalues --    0.04888   0.07655   0.08465   0.12748   0.12748
 Alpha virt. eigenvalues --    0.15638   0.18327   0.22379   0.22379   0.39172
 Alpha virt. eigenvalues --    0.66609   0.82587   1.19199   1.19200   1.26568
 Alpha virt. eigenvalues --    1.26568   1.38040   1.38041   1.41831   1.59099
 Alpha virt. eigenvalues --    1.59099   1.73726   4.38348   4.44777 195.46401
 Alpha virt. eigenvalues --  195.48099
          Condensed to atoms (all electrons):
               1          2
     1  Ag  49.718358  -2.718358
     2  Ag  -2.718358  49.718358
 Mulliken charges:
               1
     1  Ag   0.000000
     2  Ag   0.000000
 Sum of Mulliken charges =   0.00000
 Mulliken charges with hydrogens summed into heavy atoms:
               1
     1  Ag   0.000000
     2  Ag   0.000000
 Electronic spatial extent (au):  <R**2>=            350.9377
 Charge=              0.0000 electrons
 Dipole moment (field-independent basis, Debye):
    X=              0.0000    Y=              0.0000    Z=              0.0000  Tot=              0.0000
 Quadrupole moment (field-independent basis, Debye-Ang):
   XX=            -43.3006   YY=            -43.3006   ZZ=            -39.7415
   XY=              0.0000   XZ=              0.0000   YZ=              0.0000
 Traceless Quadrupole moment (field-independent basis, Debye-Ang):
   XX=             -1.1864   YY=             -1.1864   ZZ=              2.3728
   XY=              0.0000   XZ=              0.0000   YZ=              0.0000
 Octapole moment (field-independent basis, Debye-Ang**2):
  XXX=              0.0000  YYY=              0.0000  ZZZ=              0.0000  XYY=              0.0000
  XXY=              0.0000  XXZ=              0.0000  XZZ=              0.0000  YZZ=              0.0000
  YYZ=              0.0000  XYZ=              0.0000
 Hexadecapole moment (field-independent basis, Debye-Ang**3):
 XXXX=            -61.3050 YYYY=            -61.3050 ZZZZ=           -227.0113 XXXY=              0.0000
 XXXZ=              0.0000 YYYX=              0.0000 YYYZ=              0.0000 ZZZX=              0.0000
 ZZZY=              0.0000 XXYY=            -20.4350 XXZZ=            -49.6364 YYZZ=            -49.6364
 XXYZ=              0.0000 YYXZ=              0.0000 ZZXY=              0.0000
 N-N= 6.679728307287D+02 E-N=-2.595424690488D+04  KE= 1.030791044788D+04
 Symmetry AG   KE= 3.566828105124D+03
 Symmetry B1G  KE= 1.257314734740D+02
 Symmetry B2G  KE= 7.314694979689D+02
 Symmetry B3G  KE= 7.314694979689D+02
 Symmetry AU   KE= 1.272029320759D+02
 Symmetry B1U  KE= 3.569922762951D+03
 Symmetry B2U  KE= 7.276430891612D+02
 Symmetry B3U  KE= 7.276430891612D+02
 No NMR shielding tensors so no spin-rotation constants.
 Leave Link  601 at Sun Oct 19 14:19:03 2025, MaxMem=    33554432 cpu:         0.0
 (Enter C:\G09W\l9999.exe)
 1|1|UNPC-PRO|SP|RB3LYP|3-21G|Ag2|INANI|19-Oct-2025|0||#p b3lyp/3-21g||
 Title Card Required||0,1|Ag,0,0.,0.,1.75|Ag,0,0.,0.,0.||Version=IA32W-
 G09RevD.01|State=1-SGG|HF=-10352.2325044|RMSD=2.830e-009|Dipole=0.,0.,
 0.|Quadrupole=-0.8820449,-0.8820449,1.7640898,0.,0.,0.|PG=D*H [C*(Ag1.
 Ag1)]||@


 THE REASON MAN'S BEST FRIEND IS A DOG IS BECAUSE
 HE WAGS HIS TAIL INSTEAD OF HIS TONGUE.
 Job cpu time:       0 days  0 hours  0 minutes  2.0 seconds.
 File lengths (MBytes):  RWF=      5 Int=      0 D2E=      0 Chk=      1 Scr=      1
 Normal termination of Gaussian 09 at Sun Oct 19 14:19:03 2025.
