 Entering Link 1 = C:\G09W\l1.exe PID=     20812.
  
 Copyright (c) 1988,1990,1992,1993,1995,1998,2003,2009,2013,
            Gaussian, Inc.  All Rights Reserved.
  
 This is part of the Gaussian(R) 09 program.  It is based on
 the Gaussian(R) 03 system (copyright 2003, Gaussian, Inc.),
 the Gaussian(R) 98 system (copyright 1998, Gaussian, Inc.),
 the Gaussian(R) 94 system (copyright 1995, Gaussian, Inc.),
 the Gaussian 92(TM) system (copyright 1992, Gaussian, Inc.),
 the Gaussian 90(TM) system (copyright 1990, Gaussian, Inc.),
 the Gaussian 88(TM) system (copyright 1988, Gaussian, Inc.),
 the Gaussian 86(TM) system (copyright 1986, Carnegie Mellon
 University), and the Gaussian 82(TM) system (copyright 1983,
 Carnegie Mellon University). Gaussian is a federally registered
 trademark of Gaussian, Inc.
  
 This software contains proprietary and confidential information,
 including trade secrets, belonging to Gaussian, Inc.
  
 This software is provided under written license and may be
 used, copied, transmitted, or stored only in accord with that
 written license.
  
 The following legend is applicable only to US Government
 contracts under FAR:
  
                    RESTRICTED RIGHTS LEGEND
  
 Use, reproduction and disclosure by the US Government is
 subject to restrictions as set forth in subparagraphs (a)
 and (c) of the Commercial Computer Software - Restricted
 Rights clause in FAR 52.227-19.
  
 Gaussian, Inc.
 340 Quinnipiac St., Bldg. 40, Wallingford CT 06492
  
  
 ---------------------------------------------------------------
 Warning -- This program may not be used in any manner that
 competes with the business of Gaussian, Inc. or will provide
 assistance to any competitor of Gaussian, Inc.  The licensee
 of this program is prohibited from giving any competitor of
 Gaussian, Inc. access to this program.  By using this program,
 the user acknowledges that Gaussian, Inc. is engaged in the
 business of creating and licensing software in the field of
 computational chemistry and represents and warrants to the
 licensee that it is not a competitor of Gaussian, Inc. and that
 it will not use this program in any manner prohibited above.
 ---------------------------------------------------------------
  

 Cite this work as:
 Gaussian 09, Revision D.01,
 M. J. Frisch, G. W. Trucks, H. B. Schlegel, G. E. Scuseria, 
 M. A. Robb, J. R. Cheeseman, G. Scalmani, V. Barone, B. Mennucci, 
 G. A. Petersson, H. Nakatsuji, M. Caricato, X. Li, H. P. Hratchian, 
 A. F. Izmaylov, J. Bloino, G. Zheng, J. L. Sonnenberg, M. Hada, 
 M. Ehara, K. Toyota, R. Fukuda, J. Hasegawa, M. Ishida, T. Nakajima, 
 Y. Honda, O. Kitao, H. Nakai, T. Vreven, J. A. Montgomery, Jr., 
 J. E. Peralta, F. Ogliaro, M. Bearpark, J. J. Heyd, E. Brothers, 
 K. N. Kudin, V. N. Staroverov, T. Keith, R. Kobayashi, J. Normand, 
 K. Raghavachari, A. Rendell, J. C. Burant, S. S. Iyengar, J. Tomasi, 
 M. Cossi, N. Rega, J. M. Millam, M. Klene, J. E. Knox, J. B. Cross, 
 V. Bakken, C. Adamo, J. Jaramillo, R. Gomperts, R. E. Stratmann, 
 O. Yazyev, A. J. Austin, R. Cammi, C. Pomelli, J. W. Ochterski, 
 R. L. Martin, K. Morokuma, V. G. Zakrzewski, G. A. Voth, 
 P. Salvador, J. J. Dannenberg, S. Dapprich, A. D. Daniels, 
 O. Farkas, J. B. Foresman, J. V. Ortiz, J. Cioslowski, 
 and D. J. Fox, Gaussian, Inc., Wallingford CT, 2013.
 
 ******************************************
 Gaussian 09:  IA32W-G09RevD.01 24-Apr-2013
                19-Oct-2025 
 ******************************************
 %chk=C:\Users\inani\Documents\AG\AG.chk
 --------------
 #p b3lyp/3-21g
 --------------
 1/38=1/1;
 2/12=2,17=6,18=5,40=1/2;
 3/5=5,11=2,16=1,25=1,30=1,74=-5/1,2,3;
 4//1;
 5/5=2,38=5/2;
 6/7=2,8=2,9=2,10=2,28=1/1;
 99/5=1,9=1/99;
 Leave Link    1 at Sun Oct 19 14:19:03 2025, MaxMem=           0 cpu:         0.0
 (Enter C:\G09W\l101.exe)
 -------------------
 Title Card Required
 -------------------
 Symbolic Z-matrix:
 Charge =  0 Multiplicity = 1
 Ag                    0.        0.        2. 
 Ag                    0.        0.        0. 
 
 NAtoms=      2 NQM=        2 NQMF=       0 NMMI=      0 NMMIF=      0
                NMic=       0 NMicF=      0.
                    Isotopes and Nuclear Properties:
 (Nuclear quadrupole moments (NQMom) in fm**2, nuclear magnetic moments (NMagM)
  in nuclear magnetons)

  Atom         1           2
 IAtWgt=         107         107
 AtmWgt= 106.9050900 106.9050900
 NucSpn=           1           1
 AtZEff=   0.0000000   0.0000000
 NQMom=    0.0000000   0.0000000
 NMagM=   -0.1135700  -0.1135700
 AtZNuc=  47.0000000  47.0000000
 Leave Link  101 at Sun Oct 19 14:19:03 2025, MaxMem=    33554432 cpu:         0.0
 (Enter C:\G09W\l202.exe)
                          Input orientation:                          
 ---------------------------------------------------------------------
 Center     Atomic      Atomic             Coordinates (Angstroms)
 Number     Number       Type             X           Y           Z
 ---------------------------------------------------------------------
      1         47           0        0.000000    0.000000    2.000000
      2         47           0        0.000000    0.000000    0.000000
 ---------------------------------------------------------------------
 Stoichiometry    Ag2
 Framework group  D*H[C*(Ag.Ag)]
 Deg. of freedom     1
 Full point group                 D*H     NOp   8
 Largest Abelian subgroup         D2H     NOp   8
 Largest concise Abelian subgroup C2      NOp   2
                         Standard orientation:                         
 ---------------------------------------------------------------------
 Center     Atomic      Atomic             Coordinates (Angstroms)
 Number     Number       Type             X           Y           Z
 ---------------------------------------------------------------------
      1         47           0        0.000000    0.000000    1.000000
      2         47           0        0.000000    0.000000   -1.000000
 ---------------------------------------------------------------------
 Rotational constants (GHZ):      0.0000000      2.3636807      2.3636807
 Leave Link  202 at Sun Oct 19 14:19:03 2025, MaxMem=    33554432 cpu:         0.0
 (Enter C:\G09W\l301.exe)
 Standard basis: 3-21G (6D, 7F)
 Ernie: Thresh=  0.10000D-02 Tol=  0.10000D-05 Strict=F.
 There are    20 symmetry adapted cartesian basis functions of AG  symmetry.
 There are     3 symmetry adapted cartesian basis functions of B1G symmetry.
 There are     8 symmetry adapted cartesian basis functions of B2G symmetry.
 There are     8 symmetry adapted cartesian basis functions of B3G symmetry.
 There are     3 symmetry adapted cartesian basis functions of AU  symmetry.
 There are    20 symmetry adapted cartesian basis functions of B1U symmetry.
 There are     8 symmetry adapted cartesian basis functions of B2U symmetry.
 There are     8 symmetry adapted cartesian basis functions of B3U symmetry.
 There are    20 symmetry adapted basis functions of AG  symmetry.
 There are     3 symmetry adapted basis functions of B1G symmetry.
 There are     8 symmetry adapted basis functions of B2G symmetry.
 There are     8 symmetry adapted basis functions of B3G symmetry.
 There are     3 symmetry adapted basis functions of AU  symmetry.
 There are    20 symmetry adapted basis functions of B1U symmetry.
 There are     8 symmetry adapted basis functions of B2U symmetry.
 There are     8 symmetry adapted basis functions of B3U symmetry.
    78 basis functions,   174 primitive gaussians,    78 cartesian basis functions
    47 alpha electrons       47 beta electrons
       nuclear repulsion energy       584.4762268877 Hartrees.
 IExCor=  402 DFT=T Ex+Corr=B3LYP ExCW=0 ScaHFX=  0.200000
 ScaDFX=  0.800000  0.720000  1.000000  0.810000 ScalE2=  1.000000  1.000000
 IRadAn=      0 IRanWt=     -1 IRanGd=            0 ICorTp=0 IEmpDi=  4
 NAtoms=    2 NActive=    2 NUniq=    1 SFac= 4.00D+00 NAtFMM=   60 NAOKFM=F Big=F
 Integral buffers will be    262144 words long.
 Raffenetti 2 integral format.
 Two-electron integral symmetry is turned on.
 Leave Link  301 at Sun Oct 19 14:19:03 2025, MaxMem=    33554432 cpu:         0.0
 (Enter C:\G09W\l302.exe)
 NPDir=0 NMtPBC=     1 NCelOv=     1 NCel=       1 NClECP=     1 NCelD=      1
         NCelK=      1 NCelE2=     1 NClLst=     1 CellRange=     0.0.
 One-electron integrals computed using PRISM.
 One-electron integral symmetry used in STVInt
 NBasis=    78 RedAO= T EigKep=  1.19D-03  NBF=    20     3     8     8     3    20     8     8
 NBsUse=    78 1.00D-06 EigRej= -1.00D+00 NBFU=    20     3     8     8     3    20     8     8
 Precomputing XC quadrature grid using
 IXCGrd= 4 IRadAn=           0 IRanWt=          -1 IRanGd=           0 AccXCQ= 0.00D+00.
 Defaulting to unpruned grid for atomic number  47.
 Generated NRdTot=       0 NPtTot=           0 NUsed=           0 NTot=          16
 NSgBfM=    68    68    68    68    68 MxSgAt=     2 MxSgA2=     2.
 Leave Link  302 at Sun Oct 19 14:19:03 2025, MaxMem=    33554432 cpu:         0.0
 (Enter C:\G09W\l303.exe)
 DipDrv:  MaxL=1.
 Leave Link  303 at Sun Oct 19 14:19:03 2025, MaxMem=    33554432 cpu:         0.0
 (Enter C:\G09W\l401.exe)
 ExpMin= 3.49D-02 ExpMax= 1.12D+04 ExpMxC= 1.12D+04 IAcc=3 IRadAn=         5 AccDes= 0.00D+00
 Harris functional with IExCor=  402 and IRadAn=       5 diagonalized for initial guess.
 HarFok:  IExCor=  402 AccDes= 0.00D+00 IRadAn=         5 IDoV= 1 UseB2=F ITyADJ=14
 ICtDFT=  3500011 ScaDFX=  1.000000  1.000000  1.000000  1.000000
 Defaulting to unpruned grid for atomic number  47.
 FoFCou: FMM=F IPFlag=           0 FMFlag=      100000 FMFlg1=           0
         NFxFlg=           0 DoJE=T BraDBF=F KetDBF=T FulRan=T
         wScrn=  0.000000 ICntrl=     500 IOpCl=  0 I1Cent=   200000004 NGrid=           0
         NMat0=    1 NMatS0=      1 NMatT0=    0 NMatD0=    1 NMtDS0=    0 NMtDT0=    0
 Petite list used in FoFCou.
 Harris En= -10353.6572738372    
 JPrj=0 DoOrth=F DoCkMO=F.
 Initial guess orbital symmetries:
       Occupied  (SGG) (SGU) (SGG) (SGU) (SGG) (SGU) (PIU) (PIU)
                 (PIG) (PIG) (SGU) (SGG) (SGU) (SGG) (PIU) (PIU)
                 (PIG) (PIG) (SGG) (PIG) (PIG) (SGU) (DLTU) (DLTU)
                 (PIU) (PIU) (DLTG) (DLTG) (SGG) (SGU) (SGG) (PIU)
                 (PIU) (PIG) (PIG) (SGU) (SGG) (PIU) (PIU) (DLTG)
                 (DLTG) (DLTU) (DLTU) (PIG) (PIG) (SGG) (SGU)
       Virtual   (SGU) (PIU) (PIU) (SGG) (PIG) (PIG) (SGG) (SGU)
                 (PIU) (PIU) (SGU) (SGG) (PIG) (PIG) (SGU) (SGG)
                 (SGU) (PIU) (PIU) (DLTG) (DLTG) (DLTU) (DLTU)
                 (SGG) (SGU) (PIG) (PIG) (SGU) (SGG) (SGU) (SGG)
 The electronic state of the initial guess is 1-SGG.
 Leave Link  401 at Sun Oct 19 14:19:03 2025, MaxMem=    33554432 cpu:         0.0
 (Enter C:\G09W\l502.exe)
 Closed shell SCF:
 Using DIIS extrapolation, IDIIS=  1040.
 Integral symmetry usage will be decided dynamically.
 Keep R1 ints in memory in symmetry-blocked form, NReq=5685550.
 IVT=       37753 IEndB=       37753 NGot=    33554432 MDV=    32866241
 LenX=    32866241 LenY=    32859716
 Requested convergence on RMS density matrix=1.00D-08 within 128 cycles.
 Requested convergence on MAX density matrix=1.00D-06.
 Requested convergence on             energy=1.00D-06.
 No special actions if energy rises.
 FoFCou: FMM=F IPFlag=           0 FMFlag=           0 FMFlg1=           0
         NFxFlg=           0 DoJE=F BraDBF=F KetDBF=F FulRan=T
         wScrn=  0.000000 ICntrl=     600 IOpCl=  0 I1Cent=           0 NGrid=           0
         NMat0=    1 NMatS0=   3081 NMatT0=    0 NMatD0=    1 NMtDS0=    0 NMtDT0=    0
 Petite list used in FoFCou.

 Cycle   1  Pass 1  IDiag  1:
 Defaulting to unpruned grid for atomic number  47.
 E= -10352.3559236758    
 DIIS: error= 4.67D-01 at cycle   1 NSaved=   1.
 NSaved= 1 IEnMin= 1 EnMin= -10352.3559236758     IErMin= 1 ErrMin= 4.67D-01
 ErrMax= 4.67D-01  0.00D+00 EMaxC= 1.00D-01 BMatC= 4.31D+00 BMatP= 4.31D+00
 IDIUse=3 WtCom= 0.00D+00 WtEn= 1.00D+00
 Coeff-Com:  0.100D+01
 Coeff-En:   0.100D+01
 Coeff:      0.100D+01
 Gap=     0.133 Goal=   None    Shift=    0.000
 GapD=    0.133 DampG=1.000 DampE=0.125 DampFc=0.1250 IDamp=-1.
 Damping current iteration by 1.25D-01
 RMSDP=2.65D-02 MaxDP=4.78D-01              OVMax= 0.00D+00

 Cycle   2  Pass 1  IDiag  1:
 E= -10352.3909179111     Delta-E=       -0.034994235313 Rises=F Damp=T
 DIIS: error= 4.06D-01 at cycle   2 NSaved=   2.
 NSaved= 2 IEnMin= 2 EnMin= -10352.3909179111     IErMin= 2 ErrMin= 4.06D-01
 ErrMax= 4.06D-01  0.00D+00 EMaxC= 1.00D-01 BMatC= 3.19D+00 BMatP= 4.31D+00
 IDIUse=3 WtCom= 0.00D+00 WtEn= 1.00D+00
 Coeff-Com: -0.581D+01 0.681D+01
 Coeff-En:   0.000D+00 0.100D+01
 Coeff:      0.000D+00 0.100D+01
 Gap=     0.136 Goal=   None    Shift=    0.000
 RMSDP=2.06D-02 MaxDP=3.67D-01 DE=-3.50D-02 OVMax= 0.00D+00

 Cycle   3  Pass 1  IDiag  1:
 E= -10352.4332367731     Delta-E=       -0.042318861957 Rises=F Damp=F
 DIIS: error= 4.69D-02 at cycle   3 NSaved=   3.
 NSaved= 3 IEnMin= 3 EnMin= -10352.4332367731     IErMin= 3 ErrMin= 4.69D-02
 ErrMax= 4.69D-02  0.00D+00 EMaxC= 1.00D-01 BMatC= 1.74D-01 BMatP= 3.19D+00
 IDIUse=3 WtCom= 5.31D-01 WtEn= 4.69D-01
 Large coefficients: NSaved=  3 BigCof=   16.84 CofMax=   10.00 Det=-3.70D-04
 Inversion failed.  Reducing to  2 matrices.
 Coeff-Com:  0.115D+00 0.885D+00
 Coeff-En:   0.378D+00 0.622D+00
 Coeff:      0.238D+00 0.762D+00
 Gap=     0.116 Goal=   None    Shift=    0.000
 RMSDP=2.25D-02 MaxDP=2.98D-01 DE=-4.23D-02 OVMax= 0.00D+00

 Cycle   4  Pass 1  IDiag  1:
 E= -10352.4736980351     Delta-E=       -0.040461262070 Rises=F Damp=F
 DIIS: error= 3.19D-02 at cycle   4 NSaved=   3.
 NSaved= 3 IEnMin= 3 EnMin= -10352.4736980351     IErMin= 3 ErrMin= 3.19D-02
 ErrMax= 3.19D-02  0.00D+00 EMaxC= 1.00D-01 BMatC= 8.93D-02 BMatP= 1.74D-01
 IDIUse=3 WtCom= 6.81D-01 WtEn= 3.19D-01
 Coeff-Com:  0.995D-02 0.421D+00 0.569D+00
 Coeff-En:   0.000D+00 0.371D+00 0.629D+00
 Coeff:      0.677D-02 0.405D+00 0.588D+00
 Gap=     0.129 Goal=   None    Shift=    0.000
 RMSDP=1.41D-02 MaxDP=2.21D-01 DE=-4.05D-02 OVMax= 0.00D+00

 Cycle   5  Pass 1  IDiag  1:
 E= -10352.5250651422     Delta-E=       -0.051367107049 Rises=F Damp=F
 DIIS: error= 2.54D-03 at cycle   5 NSaved=   4.
 NSaved= 4 IEnMin= 4 EnMin= -10352.5250651422     IErMin= 4 ErrMin= 2.54D-03
 ErrMax= 2.54D-03  0.00D+00 EMaxC= 1.00D-01 BMatC= 6.18D-04 BMatP= 8.93D-02
 IDIUse=3 WtCom= 9.75D-01 WtEn= 2.54D-02
 Coeff-Com:  0.163D-03 0.220D-01 0.102D+00 0.876D+00
 Coeff-En:   0.000D+00 0.000D+00 0.000D+00 0.100D+01
 Coeff:      0.159D-03 0.214D-01 0.995D-01 0.879D+00
 Gap=     0.127 Goal=   None    Shift=    0.000
 RMSDP=1.02D-03 MaxDP=1.40D-02 DE=-5.14D-02 OVMax= 0.00D+00

 Cycle   6  Pass 1  IDiag  1:
 E= -10352.5254889512     Delta-E=       -0.000423809046 Rises=F Damp=F
 DIIS: error= 1.82D-04 at cycle   6 NSaved=   5.
 NSaved= 5 IEnMin= 5 EnMin= -10352.5254889512     IErMin= 5 ErrMin= 1.82D-04
 ErrMax= 1.82D-04  0.00D+00 EMaxC= 1.00D-01 BMatC= 2.92D-06 BMatP= 6.18D-04
 IDIUse=3 WtCom= 9.98D-01 WtEn= 1.82D-03
 Coeff-Com: -0.117D-03-0.325D-02 0.146D-02 0.124D+00 0.878D+00
 Coeff-En:   0.000D+00 0.000D+00 0.000D+00 0.000D+00 0.100D+01
 Coeff:     -0.117D-03-0.324D-02 0.145D-02 0.124D+00 0.878D+00
 Gap=     0.128 Goal=   None    Shift=    0.000
 RMSDP=1.30D-04 MaxDP=1.90D-03 DE=-4.24D-04 OVMax= 0.00D+00

 Cycle   7  Pass 1  IDiag  1:
 E= -10352.5254923911     Delta-E=       -0.000003439833 Rises=F Damp=F
 DIIS: error= 1.01D-05 at cycle   7 NSaved=   6.
 NSaved= 6 IEnMin= 6 EnMin= -10352.5254923911     IErMin= 6 ErrMin= 1.01D-05
 ErrMax= 1.01D-05  0.00D+00 EMaxC= 1.00D-01 BMatC= 1.12D-08 BMatP= 2.92D-06
 IDIUse=1 WtCom= 1.00D+00 WtEn= 0.00D+00
 Coeff-Com: -0.487D-05-0.494D-03-0.183D-02-0.100D-01 0.770D-01 0.935D+00
 Coeff:     -0.487D-05-0.494D-03-0.183D-02-0.100D-01 0.770D-01 0.935D+00
 Gap=     0.128 Goal=   None    Shift=    0.000
 RMSDP=6.81D-06 MaxDP=1.44D-04 DE=-3.44D-06 OVMax= 0.00D+00

 Cycle   8  Pass 1  IDiag  1:
 E= -10352.5254924330     Delta-E=       -0.000000041990 Rises=F Damp=F
 DIIS: error= 2.84D-06 at cycle   8 NSaved=   7.
 NSaved= 7 IEnMin= 7 EnMin= -10352.5254924330     IErMin= 7 ErrMin= 2.84D-06
 ErrMax= 2.84D-06  0.00D+00 EMaxC= 1.00D-01 BMatC= 7.58D-10 BMatP= 1.12D-08
 IDIUse=1 WtCom= 1.00D+00 WtEn= 0.00D+00
 Coeff-Com:  0.118D-06 0.242D-04 0.185D-03-0.672D-03-0.236D-01-0.158D+00
 Coeff-Com:  0.118D+01
 Coeff:      0.118D-06 0.242D-04 0.185D-03-0.672D-03-0.236D-01-0.158D+00
 Coeff:      0.118D+01
 Gap=     0.128 Goal=   None    Shift=    0.000
 RMSDP=1.40D-06 MaxDP=2.21D-05 DE=-4.20D-08 OVMax= 0.00D+00

 Cycle   9  Pass 1  IDiag  1:
 E= -10352.5254924344     Delta-E=       -0.000000001341 Rises=F Damp=F
 DIIS: error= 1.19D-07 at cycle   9 NSaved=   8.
 NSaved= 8 IEnMin= 8 EnMin= -10352.5254924344     IErMin= 8 ErrMin= 1.19D-07
 ErrMax= 1.19D-07  0.00D+00 EMaxC= 1.00D-01 BMatC= 1.28D-12 BMatP= 7.58D-10
 IDIUse=1 WtCom= 1.00D+00 WtEn= 0.00D+00
 Coeff-Com:  0.176D-06 0.906D-05 0.614D-05 0.214D-04 0.919D-03-0.185D-02
 Coeff-Com: -0.368D-01 0.104D+01
 Coeff:      0.176D-06 0.906D-05 0.614D-05 0.214D-04 0.919D-03-0.185D-02
 Coeff:     -0.368D-01 0.104D+01
 Gap=     0.128 Goal=   None    Shift=    0.000
 RMSDP=1.97D-07 MaxDP=2.64D-06 DE=-1.34D-09 OVMax= 0.00D+00

 Cycle  10  Pass 1  IDiag  1:
 E= -10352.5254924346     Delta-E=       -0.000000000186 Rises=F Damp=F
 DIIS: error= 3.20D-08 at cycle  10 NSaved=   9.
 NSaved= 9 IEnMin= 9 EnMin= -10352.5254924346     IErMin= 9 ErrMin= 3.20D-08
 ErrMax= 3.20D-08  0.00D+00 EMaxC= 1.00D-01 BMatC= 8.95D-14 BMatP= 1.28D-12
 IDIUse=1 WtCom= 1.00D+00 WtEn= 0.00D+00
 Coeff-Com: -0.334D-08-0.115D-06-0.298D-06 0.160D-04 0.587D-04 0.360D-03
 Coeff-Com: -0.178D-02-0.579D-01 0.106D+01
 Coeff:     -0.334D-08-0.115D-06-0.298D-06 0.160D-04 0.587D-04 0.360D-03
 Coeff:     -0.178D-02-0.579D-01 0.106D+01
 Gap=     0.128 Goal=   None    Shift=    0.000
 RMSDP=7.55D-09 MaxDP=2.00D-07 DE=-1.86D-10 OVMax= 0.00D+00

 SCF Done:  E(RB3LYP) =  -10352.5254924     A.U. after   10 cycles
            NFock= 10  Conv=0.75D-08     -V/T= 2.0045
 KE= 1.030569078446D+04 PE=-2.578753930021D+04 EE= 4.544846796426D+03
 Leave Link  502 at Sun Oct 19 14:19:04 2025, MaxMem=    33554432 cpu:         1.0
 (Enter C:\G09W\l601.exe)
 Copying SCF densities to generalized density rwf, IOpCl= 0 IROHF=0.

 **********************************************************************

            Population analysis using the SCF density.

 **********************************************************************

 Orbital symmetries:
       Occupied  (SGG) (SGU) (SGG) (SGU) (SGG) (SGU) (PIU) (PIU)
                 (PIG) (PIG) (SGU) (SGG) (SGU) (SGG) (PIU) (PIU)
                 (PIG) (PIG) (SGG) (SGU) (PIG) (PIG) (PIU) (PIU)
                 (DLTU) (DLTU) (DLTG) (DLTG) (SGG) (SGU) (SGG)
                 (PIU) (PIU) (PIG) (PIG) (SGU) (SGG) (PIU) (PIU)
                 (DLTG) (DLTG) (DLTU) (DLTU) (PIG) (PIG) (SGU)
                 (SGG)
       Virtual   (SGU) (PIU) (PIU) (SGG) (PIG) (PIG) (SGU) (SGG)
                 (PIU) (PIU) (SGU) (SGG) (PIG) (PIG) (SGU) (SGG)
                 (SGU) (PIU) (PIU) (DLTG) (DLTG) (DLTU) (DLTU)
                 (SGG) (SGU) (PIG) (PIG) (SGU) (SGG) (SGU) (SGG)
 The electronic state is 1-SGG.
 Alpha  occ. eigenvalues -- -898.86616-898.86582-130.58824-130.58823-121.09098
 Alpha  occ. eigenvalues -- -121.09070-121.08939-121.08939-121.08934-121.08934
 Alpha  occ. eigenvalues --  -24.19435 -24.19434 -20.16395 -20.16386 -20.16014
 Alpha  occ. eigenvalues --  -20.16014 -20.16014 -20.16014 -13.66582 -13.66520
 Alpha  occ. eigenvalues --  -13.66469 -13.66469 -13.66422 -13.66422 -13.66221
 Alpha  occ. eigenvalues --  -13.66221 -13.66201 -13.66201  -3.38232  -3.36760
 Alpha  occ. eigenvalues --   -2.15015  -2.09420  -2.09420  -2.08504  -2.08504
 Alpha  occ. eigenvalues --   -2.07697  -0.42458  -0.39838  -0.39838  -0.32982
 Alpha  occ. eigenvalues --   -0.32981  -0.30369  -0.30369  -0.27413  -0.27413
 Alpha  occ. eigenvalues --   -0.25805  -0.19166
 Alpha virt. eigenvalues --   -0.06411  -0.02624  -0.02624   0.01539   0.04434
 Alpha virt. eigenvalues --    0.04434   0.07351   0.08716   0.13435   0.13435
 Alpha virt. eigenvalues --    0.15360   0.16988   0.21434   0.21434   0.36489
 Alpha virt. eigenvalues --    0.67466   0.82627   1.20521   1.20521   1.23129
 Alpha virt. eigenvalues --    1.23130   1.37034   1.37035   1.55249   1.55413
 Alpha virt. eigenvalues --    1.60999   1.60999   4.39439   4.48784 195.44696
 Alpha virt. eigenvalues --  195.50927
          Condensed to atoms (all electrons):
               1          2
     1  Ag  47.863550  -0.863550
     2  Ag  -0.863550  47.863550
 Mulliken charges:
               1
     1  Ag   0.000000
     2  Ag   0.000000
 Sum of Mulliken charges =   0.00000
 Mulliken charges with hydrogens summed into heavy atoms:
               1
     1  Ag   0.000000
     2  Ag   0.000000
 Electronic spatial extent (au):  <R**2>=            428.1053
 Charge=              0.0000 electrons
 Dipole moment (field-independent basis, Debye):
    X=              0.0000    Y=              0.0000    Z=              0.0000  Tot=              0.0000
 Quadrupole moment (field-independent basis, Debye-Ang):
   XX=            -43.2565   YY=            -43.2565   ZZ=            -37.8019
   XY=              0.0000   XZ=              0.0000   YZ=              0.0000
 Traceless Quadrupole moment (field-independent basis, Debye-Ang):
   XX=             -1.8182   YY=             -1.8182   ZZ=              3.6364
   XY=              0.0000   XZ=              0.0000   YZ=              0.0000
 Octapole moment (field-independent basis, Debye-Ang**2):
  XXX=              0.0000  YYY=              0.0000  ZZZ=              0.0000  XYY=              0.0000
  XXY=              0.0000  XXZ=              0.0000  XZZ=              0.0000  YZZ=              0.0000
  YYZ=              0.0000  XYZ=              0.0000
 Hexadecapole moment (field-independent basis, Debye-Ang**3):
 XXXX=            -63.1414 YYYY=            -63.1414 ZZZZ=           -275.9850 XXXY=              0.0000
 XXXZ=              0.0000 YYYX=              0.0000 YYYZ=              0.0000 ZZZX=              0.0000
 ZZZY=              0.0000 XXYY=            -21.0471 XXZZ=            -58.2641 YYZZ=            -58.2641
 XXYZ=              0.0000 YYXZ=              0.0000 ZZXY=              0.0000
 N-N= 5.844762268877D+02 E-N=-2.578753931812D+04  KE= 1.030569078446D+04
 Symmetry AG   KE= 3.567074961472D+03
 Symmetry B1G  KE= 1.260402608046D+02
 Symmetry B2G  KE= 7.307663763710D+02
 Symmetry B3G  KE= 7.307663763710D+02
 Symmetry AU   KE= 1.268800476738D+02
 Symmetry B1U  KE= 3.568320061573D+03
 Symmetry B2U  KE= 7.279213500983D+02
 Symmetry B3U  KE= 7.279213500983D+02
 No NMR shielding tensors so no spin-rotation constants.
 Leave Link  601 at Sun Oct 19 14:19:04 2025, MaxMem=    33554432 cpu:         0.0
 (Enter C:\G09W\l9999.exe)
 1|1|UNPC-PRO|SP|RB3LYP|3-21G|Ag2|INANI|19-Oct-2025|0||#p b3lyp/3-21g||
 Title Card Required||0,1|Ag,0,0.,0.,2.|Ag,0,0.,0.,0.||Version=IA32W-G0
 9RevD.01|State=1-SGG|HF=-10352.5254924|RMSD=7.549e-009|Dipole=0.,0.,0.
 |Quadrupole=-1.3517893,-1.3517893,2.7035785,0.,0.,0.|PG=D*H [C*(Ag1.Ag
 1)]||@


 THE REASON MAN'S BEST FRIEND IS A DOG IS BECAUSE
 HE WAGS HIS TAIL INSTEAD OF HIS TONGUE.
 Job cpu time:       0 days  0 hours  0 minutes  1.0 seconds.
 File lengths (MBytes):  RWF=      5 Int=      0 D2E=      0 Chk=      1 Scr=      1
 Normal termination of Gaussian 09 at Sun Oct 19 14:19:04 2025.
