 Entering Link 1 = C:\G09W\l1.exe PID=     19536.
  
 Copyright (c) 1988,1990,1992,1993,1995,1998,2003,2009,2013,
            Gaussian, Inc.  All Rights Reserved.
  
 This is part of the Gaussian(R) 09 program.  It is based on
 the Gaussian(R) 03 system (copyright 2003, Gaussian, Inc.),
 the Gaussian(R) 98 system (copyright 1998, Gaussian, Inc.),
 the Gaussian(R) 94 system (copyright 1995, Gaussian, Inc.),
 the Gaussian 92(TM) system (copyright 1992, Gaussian, Inc.),
 the Gaussian 90(TM) system (copyright 1990, Gaussian, Inc.),
 the Gaussian 88(TM) system (copyright 1988, Gaussian, Inc.),
 the Gaussian 86(TM) system (copyright 1986, Carnegie Mellon
 University), and the Gaussian 82(TM) system (copyright 1983,
 Carnegie Mellon University). Gaussian is a federally registered
 trademark of Gaussian, Inc.
  
 This software contains proprietary and confidential information,
 including trade secrets, belonging to Gaussian, Inc.
  
 This software is provided under written license and may be
 used, copied, transmitted, or stored only in accord with that
 written license.
  
 The following legend is applicable only to US Government
 contracts under FAR:
  
                    RESTRICTED RIGHTS LEGEND
  
 Use, reproduction and disclosure by the US Government is
 subject to restrictions as set forth in subparagraphs (a)
 and (c) of the Commercial Computer Software - Restricted
 Rights clause in FAR 52.227-19.
  
 Gaussian, Inc.
 340 Quinnipiac St., Bldg. 40, Wallingford CT 06492
  
  
 ---------------------------------------------------------------
 Warning -- This program may not be used in any manner that
 competes with the business of Gaussian, Inc. or will provide
 assistance to any competitor of Gaussian, Inc.  The licensee
 of this program is prohibited from giving any competitor of
 Gaussian, Inc. access to this program.  By using this program,
 the user acknowledges that Gaussian, Inc. is engaged in the
 business of creating and licensing software in the field of
 computational chemistry and represents and warrants to the
 licensee that it is not a competitor of Gaussian, Inc. and that
 it will not use this program in any manner prohibited above.
 ---------------------------------------------------------------
  

 Cite this work as:
 Gaussian 09, Revision D.01,
 M. J. Frisch, G. W. Trucks, H. B. Schlegel, G. E. Scuseria, 
 M. A. Robb, J. R. Cheeseman, G. Scalmani, V. Barone, B. Mennucci, 
 G. A. Petersson, H. Nakatsuji, M. Caricato, X. Li, H. P. Hratchian, 
 A. F. Izmaylov, J. Bloino, G. Zheng, J. L. Sonnenberg, M. Hada, 
 M. Ehara, K. Toyota, R. Fukuda, J. Hasegawa, M. Ishida, T. Nakajima, 
 Y. Honda, O. Kitao, H. Nakai, T. Vreven, J. A. Montgomery, Jr., 
 J. E. Peralta, F. Ogliaro, M. Bearpark, J. J. Heyd, E. Brothers, 
 K. N. Kudin, V. N. Staroverov, T. Keith, R. Kobayashi, J. Normand, 
 K. Raghavachari, A. Rendell, J. C. Burant, S. S. Iyengar, J. Tomasi, 
 M. Cossi, N. Rega, J. M. Millam, M. Klene, J. E. Knox, J. B. Cross, 
 V. Bakken, C. Adamo, J. Jaramillo, R. Gomperts, R. E. Stratmann, 
 O. Yazyev, A. J. Austin, R. Cammi, C. Pomelli, J. W. Ochterski, 
 R. L. Martin, K. Morokuma, V. G. Zakrzewski, G. A. Voth, 
 P. Salvador, J. J. Dannenberg, S. Dapprich, A. D. Daniels, 
 O. Farkas, J. B. Foresman, J. V. Ortiz, J. Cioslowski, 
 and D. J. Fox, Gaussian, Inc., Wallingford CT, 2013.
 
 ******************************************
 Gaussian 09:  IA32W-G09RevD.01 24-Apr-2013
                19-Oct-2025 
 ******************************************
 %chk=C:\Users\inani\Documents\AG\AG.chk
 --------------
 #p b3lyp/3-21g
 --------------
 1/38=1/1;
 2/12=2,17=6,18=5,40=1/2;
 3/5=5,11=2,16=1,25=1,30=1,74=-5/1,2,3;
 4//1;
 5/5=2,38=5/2;
 6/7=2,8=2,9=2,10=2,28=1/1;
 99/5=1,9=1/99;
 Leave Link    1 at Sun Oct 19 14:19:08 2025, MaxMem=           0 cpu:         0.0
 (Enter C:\G09W\l101.exe)
 -------------------
 Title Card Required
 -------------------
 Symbolic Z-matrix:
 Charge =  0 Multiplicity = 1
 Ag                    0.        0.        2.75 
 Ag                    0.        0.        0. 
 
 NAtoms=      2 NQM=        2 NQMF=       0 NMMI=      0 NMMIF=      0
                NMic=       0 NMicF=      0.
                    Isotopes and Nuclear Properties:
 (Nuclear quadrupole moments (NQMom) in fm**2, nuclear magnetic moments (NMagM)
  in nuclear magnetons)

  Atom         1           2
 IAtWgt=         107         107
 AtmWgt= 106.9050900 106.9050900
 NucSpn=           1           1
 AtZEff=   0.0000000   0.0000000
 NQMom=    0.0000000   0.0000000
 NMagM=   -0.1135700  -0.1135700
 AtZNuc=  47.0000000  47.0000000
 Leave Link  101 at Sun Oct 19 14:19:08 2025, MaxMem=    33554432 cpu:         0.0
 (Enter C:\G09W\l202.exe)
                          Input orientation:                          
 ---------------------------------------------------------------------
 Center     Atomic      Atomic             Coordinates (Angstroms)
 Number     Number       Type             X           Y           Z
 ---------------------------------------------------------------------
      1         47           0        0.000000    0.000000    2.750000
      2         47           0        0.000000    0.000000    0.000000
 ---------------------------------------------------------------------
 Stoichiometry    Ag2
 Framework group  D*H[C*(Ag.Ag)]
 Deg. of freedom     1
 Full point group                 D*H     NOp   8
 Largest Abelian subgroup         D2H     NOp   8
 Largest concise Abelian subgroup C2      NOp   2
                         Standard orientation:                         
 ---------------------------------------------------------------------
 Center     Atomic      Atomic             Coordinates (Angstroms)
 Number     Number       Type             X           Y           Z
 ---------------------------------------------------------------------
      1         47           0        0.000000    0.000000    1.375000
      2         47           0        0.000000    0.000000   -1.375000
 ---------------------------------------------------------------------
 Rotational constants (GHZ):      0.0000000      1.2502113      1.2502113
 Leave Link  202 at Sun Oct 19 14:19:08 2025, MaxMem=    33554432 cpu:         0.0
 (Enter C:\G09W\l301.exe)
 Standard basis: 3-21G (6D, 7F)
 Ernie: Thresh=  0.10000D-02 Tol=  0.10000D-05 Strict=F.
 There are    20 symmetry adapted cartesian basis functions of AG  symmetry.
 There are     3 symmetry adapted cartesian basis functions of B1G symmetry.
 There are     8 symmetry adapted cartesian basis functions of B2G symmetry.
 There are     8 symmetry adapted cartesian basis functions of B3G symmetry.
 There are     3 symmetry adapted cartesian basis functions of AU  symmetry.
 There are    20 symmetry adapted cartesian basis functions of B1U symmetry.
 There are     8 symmetry adapted cartesian basis functions of B2U symmetry.
 There are     8 symmetry adapted cartesian basis functions of B3U symmetry.
 There are    20 symmetry adapted basis functions of AG  symmetry.
 There are     3 symmetry adapted basis functions of B1G symmetry.
 There are     8 symmetry adapted basis functions of B2G symmetry.
 There are     8 symmetry adapted basis functions of B3G symmetry.
 There are     3 symmetry adapted basis functions of AU  symmetry.
 There are    20 symmetry adapted basis functions of B1U symmetry.
 There are     8 symmetry adapted basis functions of B2U symmetry.
 There are     8 symmetry adapted basis functions of B3U symmetry.
    78 basis functions,   174 primitive gaussians,    78 cartesian basis functions
    47 alpha electrons       47 beta electrons
       nuclear repulsion energy       425.0736195547 Hartrees.
 IExCor=  402 DFT=T Ex+Corr=B3LYP ExCW=0 ScaHFX=  0.200000
 ScaDFX=  0.800000  0.720000  1.000000  0.810000 ScalE2=  1.000000  1.000000
 IRadAn=      0 IRanWt=     -1 IRanGd=            0 ICorTp=0 IEmpDi=  4
 NAtoms=    2 NActive=    2 NUniq=    1 SFac= 4.00D+00 NAtFMM=   60 NAOKFM=F Big=F
 Integral buffers will be    262144 words long.
 Raffenetti 2 integral format.
 Two-electron integral symmetry is turned on.
 Leave Link  301 at Sun Oct 19 14:19:08 2025, MaxMem=    33554432 cpu:         0.0
 (Enter C:\G09W\l302.exe)
 NPDir=0 NMtPBC=     1 NCelOv=     1 NCel=       1 NClECP=     1 NCelD=      1
         NCelK=      1 NCelE2=     1 NClLst=     1 CellRange=     0.0.
 One-electron integrals computed using PRISM.
 One-electron integral symmetry used in STVInt
 NBasis=    78 RedAO= T EigKep=  1.76D-03  NBF=    20     3     8     8     3    20     8     8
 NBsUse=    78 1.00D-06 EigRej= -1.00D+00 NBFU=    20     3     8     8     3    20     8     8
 Precomputing XC quadrature grid using
 IXCGrd= 4 IRadAn=           0 IRanWt=          -1 IRanGd=           0 AccXCQ= 0.00D+00.
 Defaulting to unpruned grid for atomic number  47.
 Generated NRdTot=       0 NPtTot=           0 NUsed=           0 NTot=          16
 NSgBfM=    63    63    63    63    63 MxSgAt=     2 MxSgA2=     2.
 Leave Link  302 at Sun Oct 19 14:19:08 2025, MaxMem=    33554432 cpu:         0.0
 (Enter C:\G09W\l303.exe)
 DipDrv:  MaxL=1.
 Leave Link  303 at Sun Oct 19 14:19:08 2025, MaxMem=    33554432 cpu:         0.0
 (Enter C:\G09W\l401.exe)
 ExpMin= 3.49D-02 ExpMax= 1.12D+04 ExpMxC= 1.12D+04 IAcc=3 IRadAn=         5 AccDes= 0.00D+00
 Harris functional with IExCor=  402 and IRadAn=       5 diagonalized for initial guess.
 HarFok:  IExCor=  402 AccDes= 0.00D+00 IRadAn=         5 IDoV= 1 UseB2=F ITyADJ=14
 ICtDFT=  3500011 ScaDFX=  1.000000  1.000000  1.000000  1.000000
 Defaulting to unpruned grid for atomic number  47.
 FoFCou: FMM=F IPFlag=           0 FMFlag=      100000 FMFlg1=           0
         NFxFlg=           0 DoJE=T BraDBF=F KetDBF=T FulRan=T
         wScrn=  0.000000 ICntrl=     500 IOpCl=  0 I1Cent=   200000004 NGrid=           0
         NMat0=    1 NMatS0=      1 NMatT0=    0 NMatD0=    1 NMtDS0=    0 NMtDT0=    0
 Petite list used in FoFCou.
 Harris En= -10353.7694841773    
 JPrj=0 DoOrth=F DoCkMO=F.
 Initial guess orbital symmetries:
       Occupied  (SGU) (SGG) (SGG) (SGU) (SGG) (SGU) (PIG) (PIG)
                 (PIU) (PIU) (SGU) (SGG) (SGG) (SGU) (PIG) (PIG)
                 (PIU) (PIU) (SGU) (PIG) (PIG) (DLTU) (DLTU) (DLTG)
                 (DLTG) (PIU) (PIU) (SGG) (SGG) (SGU) (SGG) (PIU)
                 (PIU) (PIG) (PIG) (SGU) (SGG) (PIU) (PIU) (DLTG)
                 (DLTG) (DLTU) (DLTU) (PIG) (PIG) (SGU) (SGG)
       Virtual   (SGU) (PIU) (PIU) (SGG) (PIG) (PIG) (SGU) (SGG)
                 (PIU) (PIU) (SGG) (SGU) (PIG) (PIG) (SGU) (SGG)
                 (SGU) (SGG) (PIU) (PIU) (DLTG) (DLTG) (DLTU) (DLTU)
                 (PIG) (PIG) (SGU) (SGG) (SGU) (SGG) (SGU)
 The electronic state of the initial guess is 1-SGG.
 Leave Link  401 at Sun Oct 19 14:19:08 2025, MaxMem=    33554432 cpu:         0.0
 (Enter C:\G09W\l502.exe)
 Closed shell SCF:
 Using DIIS extrapolation, IDIIS=  1040.
 Integral symmetry usage will be decided dynamically.
 Keep R1 ints in memory in symmetry-blocked form, NReq=5685550.
 IVT=       37753 IEndB=       37753 NGot=    33554432 MDV=    32866241
 LenX=    32866241 LenY=    32859716
 Requested convergence on RMS density matrix=1.00D-08 within 128 cycles.
 Requested convergence on MAX density matrix=1.00D-06.
 Requested convergence on             energy=1.00D-06.
 No special actions if energy rises.
 FoFCou: FMM=F IPFlag=           0 FMFlag=           0 FMFlg1=           0
         NFxFlg=           0 DoJE=F BraDBF=F KetDBF=F FulRan=T
         wScrn=  0.000000 ICntrl=     600 IOpCl=  0 I1Cent=           0 NGrid=           0
         NMat0=    1 NMatS0=   3081 NMatT0=    0 NMatD0=    1 NMtDS0=    0 NMtDT0=    0
 Petite list used in FoFCou.

 Cycle   1  Pass 1  IDiag  1:
 Defaulting to unpruned grid for atomic number  47.
 E= -10352.4762781015    
 DIIS: error= 5.21D-01 at cycle   1 NSaved=   1.
 NSaved= 1 IEnMin= 1 EnMin= -10352.4762781015     IErMin= 1 ErrMin= 5.21D-01
 ErrMax= 5.21D-01  0.00D+00 EMaxC= 1.00D-01 BMatC= 4.26D+00 BMatP= 4.26D+00
 IDIUse=3 WtCom= 0.00D+00 WtEn= 1.00D+00
 Coeff-Com:  0.100D+01
 Coeff-En:   0.100D+01
 Coeff:      0.100D+01
 Gap=     0.088 Goal=   None    Shift=    0.000
 GapD=    0.088 DampG=0.500 DampE=0.125 DampFc=0.1250 IDamp=-1.
 Damping current iteration by 1.25D-01
 RMSDP=1.60D-02 MaxDP=4.45D-01              OVMax= 0.00D+00

 Cycle   2  Pass 1  IDiag  1:
 E= -10352.5063628494     Delta-E=       -0.030084747854 Rises=F Damp=T
 DIIS: error= 4.53D-01 at cycle   2 NSaved=   2.
 NSaved= 2 IEnMin= 2 EnMin= -10352.5063628494     IErMin= 2 ErrMin= 4.53D-01
 ErrMax= 4.53D-01  0.00D+00 EMaxC= 1.00D-01 BMatC= 3.18D+00 BMatP= 4.26D+00
 IDIUse=3 WtCom= 0.00D+00 WtEn= 1.00D+00
 Coeff-Com: -0.599D+01 0.699D+01
 Coeff-En:   0.000D+00 0.100D+01
 Coeff:      0.000D+00 0.100D+01
 Gap=     0.087 Goal=   None    Shift=    0.000
 RMSDP=1.25D-02 MaxDP=3.48D-01 DE=-3.01D-02 OVMax= 0.00D+00

 Cycle   3  Pass 1  IDiag  1:
 E= -10352.5634364459     Delta-E=       -0.057073596528 Rises=F Damp=F
 DIIS: error= 4.02D-02 at cycle   3 NSaved=   3.
 NSaved= 3 IEnMin= 3 EnMin= -10352.5634364459     IErMin= 3 ErrMin= 4.02D-02
 ErrMax= 4.02D-02  0.00D+00 EMaxC= 1.00D-01 BMatC= 1.32D-01 BMatP= 3.18D+00
 IDIUse=3 WtCom= 5.98D-01 WtEn= 4.02D-01
 Large coefficients: NSaved=  3 BigCof=   18.45 CofMax=   10.00 Det=-2.56D-04
 Inversion failed.  Reducing to  2 matrices.
 Coeff-Com:  0.987D-01 0.901D+00
 Coeff-En:   0.283D+00 0.717D+00
 Coeff:      0.173D+00 0.827D+00
 Gap=     0.092 Goal=   None    Shift=    0.000
 RMSDP=9.82D-03 MaxDP=1.91D-01 DE=-5.71D-02 OVMax= 0.00D+00

 Cycle   4  Pass 1  IDiag  1:
 E= -10352.5867617785     Delta-E=       -0.023325332571 Rises=F Damp=F
 DIIS: error= 3.02D-02 at cycle   4 NSaved=   3.
 NSaved= 3 IEnMin= 3 EnMin= -10352.5867617785     IErMin= 3 ErrMin= 3.02D-02
 ErrMax= 3.02D-02  0.00D+00 EMaxC= 1.00D-01 BMatC= 8.10D-02 BMatP= 1.32D-01
 IDIUse=3 WtCom= 6.98D-01 WtEn= 3.02D-01
 Coeff-Com:  0.948D-02 0.444D+00 0.547D+00
 Coeff-En:   0.000D+00 0.400D+00 0.600D+00
 Coeff:      0.662D-02 0.430D+00 0.563D+00
 Gap=     0.096 Goal=   None    Shift=    0.000
 RMSDP=5.35D-03 MaxDP=7.95D-02 DE=-2.33D-02 OVMax= 0.00D+00

 Cycle   5  Pass 1  IDiag  1:
 E= -10352.6302082335     Delta-E=       -0.043446454998 Rises=F Damp=F
 DIIS: error= 1.71D-03 at cycle   5 NSaved=   4.
 NSaved= 4 IEnMin= 4 EnMin= -10352.6302082335     IErMin= 4 ErrMin= 1.71D-03
 ErrMax= 1.71D-03  0.00D+00 EMaxC= 1.00D-01 BMatC= 2.97D-04 BMatP= 8.10D-02
 IDIUse=3 WtCom= 9.83D-01 WtEn= 1.71D-02
 Coeff-Com:  0.110D-02 0.671D-01 0.130D+00 0.802D+00
 Coeff-En:   0.000D+00 0.000D+00 0.000D+00 0.100D+01
 Coeff:      0.108D-02 0.660D-01 0.127D+00 0.806D+00
 Gap=     0.093 Goal=   None    Shift=    0.000
 RMSDP=4.22D-04 MaxDP=6.89D-03 DE=-4.34D-02 OVMax= 0.00D+00

 Cycle   6  Pass 1  IDiag  1:
 E= -10352.6304381534     Delta-E=       -0.000229919890 Rises=F Damp=F
 DIIS: error= 1.70D-04 at cycle   6 NSaved=   5.
 NSaved= 5 IEnMin= 5 EnMin= -10352.6304381534     IErMin= 5 ErrMin= 1.70D-04
 ErrMax= 1.70D-04  0.00D+00 EMaxC= 1.00D-01 BMatC= 1.46D-06 BMatP= 2.97D-04
 IDIUse=3 WtCom= 9.98D-01 WtEn= 1.70D-03
 Coeff-Com: -0.375D-04 0.246D-02 0.131D-01 0.190D+00 0.795D+00
 Coeff-En:   0.000D+00 0.000D+00 0.000D+00 0.000D+00 0.100D+01
 Coeff:     -0.374D-04 0.246D-02 0.131D-01 0.189D+00 0.795D+00
 Gap=     0.093 Goal=   None    Shift=    0.000
 RMSDP=6.06D-05 MaxDP=8.80D-04 DE=-2.30D-04 OVMax= 0.00D+00

 Cycle   7  Pass 1  IDiag  1:
 E= -10352.6304426302     Delta-E=       -0.000004476800 Rises=F Damp=F
 DIIS: error= 9.88D-06 at cycle   7 NSaved=   6.
 NSaved= 6 IEnMin= 6 EnMin= -10352.6304426302     IErMin= 6 ErrMin= 9.88D-06
 ErrMax= 9.88D-06  0.00D+00 EMaxC= 1.00D-01 BMatC= 8.31D-09 BMatP= 1.46D-06
 IDIUse=1 WtCom= 1.00D+00 WtEn= 0.00D+00
 Coeff-Com: -0.711D-05-0.646D-03-0.180D-02-0.138D-01 0.140D-01 0.100D+01
 Coeff:     -0.711D-05-0.646D-03-0.180D-02-0.138D-01 0.140D-01 0.100D+01
 Gap=     0.093 Goal=   None    Shift=    0.000
 RMSDP=5.62D-06 MaxDP=1.13D-04 DE=-4.48D-06 OVMax= 0.00D+00

 Cycle   8  Pass 1  IDiag  1:
 E= -10352.6304426587     Delta-E=       -0.000000028469 Rises=F Damp=F
 DIIS: error= 1.27D-06 at cycle   8 NSaved=   7.
 NSaved= 7 IEnMin= 7 EnMin= -10352.6304426587     IErMin= 7 ErrMin= 1.27D-06
 ErrMax= 1.27D-06  0.00D+00 EMaxC= 1.00D-01 BMatC= 1.71D-10 BMatP= 8.31D-09
 IDIUse=1 WtCom= 1.00D+00 WtEn= 0.00D+00
 Coeff-Com:  0.120D-06 0.265D-04 0.162D-03 0.732D-03-0.623D-02-0.185D+00
 Coeff-Com:  0.119D+01
 Coeff:      0.120D-06 0.265D-04 0.162D-03 0.732D-03-0.623D-02-0.185D+00
 Coeff:      0.119D+01
 Gap=     0.093 Goal=   None    Shift=    0.000
 RMSDP=8.26D-07 MaxDP=1.55D-05 DE=-2.85D-08 OVMax= 0.00D+00

 Cycle   9  Pass 1  IDiag  1:
 E= -10352.6304426590     Delta-E=       -0.000000000389 Rises=F Damp=F
 DIIS: error= 7.39D-08 at cycle   9 NSaved=   8.
 NSaved= 8 IEnMin= 8 EnMin= -10352.6304426590     IErMin= 8 ErrMin= 7.39D-08
 ErrMax= 7.39D-08  0.00D+00 EMaxC= 1.00D-01 BMatC= 3.25D-13 BMatP= 1.71D-10
 IDIUse=1 WtCom= 1.00D+00 WtEn= 0.00D+00
 Coeff-Com:  0.116D-06 0.693D-05 0.733D-05-0.529D-05 0.936D-04 0.270D-04
 Coeff-Com: -0.385D-01 0.104D+01
 Coeff:      0.116D-06 0.693D-05 0.733D-05-0.529D-05 0.936D-04 0.270D-04
 Coeff:     -0.385D-01 0.104D+01
 Gap=     0.093 Goal=   None    Shift=    0.000
 RMSDP=5.42D-08 MaxDP=5.78D-07 DE=-3.89D-10 OVMax= 0.00D+00

 Cycle  10  Pass 1  IDiag  1:
 E= -10352.6304426591     Delta-E=       -0.000000000106 Rises=F Damp=F
 DIIS: error= 1.48D-08 at cycle  10 NSaved=   9.
 NSaved= 9 IEnMin= 9 EnMin= -10352.6304426591     IErMin= 9 ErrMin= 1.48D-08
 ErrMax= 1.48D-08  0.00D+00 EMaxC= 1.00D-01 BMatC= 2.15D-14 BMatP= 3.25D-13
 IDIUse=1 WtCom= 1.00D+00 WtEn= 0.00D+00
 Coeff-Com: -0.247D-08-0.142D-06-0.510D-06 0.869D-05 0.427D-04 0.563D-03
 Coeff-Com: -0.234D-02-0.820D-01 0.108D+01
 Coeff:     -0.247D-08-0.142D-06-0.510D-06 0.869D-05 0.427D-04 0.563D-03
 Coeff:     -0.234D-02-0.820D-01 0.108D+01
 Gap=     0.093 Goal=   None    Shift=    0.000
 RMSDP=3.60D-09 MaxDP=5.96D-08 DE=-1.06D-10 OVMax= 0.00D+00

 SCF Done:  E(RB3LYP) =  -10352.6304427     A.U. after   10 cycles
            NFock= 10  Conv=0.36D-08     -V/T= 2.0047
 KE= 1.030465367513D+04 PE=-2.547063395897D+04 EE= 4.388276221627D+03
 Leave Link  502 at Sun Oct 19 14:19:09 2025, MaxMem=    33554432 cpu:         0.0
 (Enter C:\G09W\l601.exe)
 Copying SCF densities to generalized density rwf, IOpCl= 0 IROHF=0.

 **********************************************************************

            Population analysis using the SCF density.

 **********************************************************************

 Orbital symmetries:
       Occupied  (SGU) (SGG) (SGG) (SGU) (SGG) (SGU) (PIG) (PIG)
                 (PIU) (PIU) (SGU) (SGG) (SGG) (SGU) (PIG) (PIG)
                 (PIU) (PIU) (SGU) (PIG) (PIG) (SGG) (PIU) (PIU)
                 (DLTU) (DLTU) (DLTG) (DLTG) (SGG) (SGU) (SGG)
                 (SGU) (PIU) (PIU) (PIG) (PIG) (SGG) (PIU) (PIU)
                 (DLTG) (DLTG) (DLTU) (DLTU) (PIG) (PIG) (SGU)
                 (SGG)
       Virtual   (SGU) (PIU) (PIU) (SGG) (PIG) (PIG) (SGU) (SGG)
                 (SGU) (PIU) (PIU) (SGG) (PIG) (PIG) (SGU) (SGG)
                 (SGU) (SGG) (PIU) (PIU) (DLTG) (DLTG) (DLTU) (DLTU)
                 (PIG) (PIG) (SGU) (SGG) (SGU) (SGG) (SGU)
 The electronic state is 1-SGG.
 Alpha  occ. eigenvalues -- -898.84434-898.84429-130.56466-130.56466-121.06704
 Alpha  occ. eigenvalues -- -121.06695-121.06631-121.06631-121.06623-121.06623
 Alpha  occ. eigenvalues --  -24.16820 -24.16819 -20.13610 -20.13607 -20.13499
 Alpha  occ. eigenvalues --  -20.13499 -20.13498 -20.13498 -13.63892 -13.63820
 Alpha  occ. eigenvalues --  -13.63820 -13.63806 -13.63793 -13.63793 -13.63750
 Alpha  occ. eigenvalues --  -13.63750 -13.63747 -13.63747  -3.34064  -3.34030
 Alpha  occ. eigenvalues --   -2.06737  -2.06324  -2.06112  -2.06112  -2.06083
 Alpha  occ. eigenvalues --   -2.06083  -0.32170  -0.30652  -0.30652  -0.29332
 Alpha  occ. eigenvalues --   -0.29332  -0.29060  -0.29060  -0.28601  -0.28601
 Alpha  occ. eigenvalues --   -0.28133  -0.17274
 Alpha virt. eigenvalues --   -0.07939  -0.01914  -0.01914   0.00045   0.03139
 Alpha virt. eigenvalues --    0.03139   0.06474   0.08909   0.14337   0.14550
 Alpha virt. eigenvalues --    0.14550   0.14701   0.19186   0.19186   0.29866
 Alpha virt. eigenvalues --    0.72460   0.78148   1.22691   1.23591   1.23591
 Alpha virt. eigenvalues --    1.30529   1.30530   1.33022   1.33023   1.42904
 Alpha virt. eigenvalues --    1.42904   1.74232   4.42761   4.49435 195.49558
 Alpha virt. eigenvalues --  195.49567
          Condensed to atoms (all electrons):
               1          2
     1  Ag  46.905968   0.094032
     2  Ag   0.094032  46.905968
 Mulliken charges:
               1
     1  Ag   0.000000
     2  Ag   0.000000
 Sum of Mulliken charges =   0.00000
 Mulliken charges with hydrogens summed into heavy atoms:
               1
     1  Ag   0.000000
     2  Ag   0.000000
 Electronic spatial extent (au):  <R**2>=            724.9908
 Charge=              0.0000 electrons
 Dipole moment (field-independent basis, Debye):
    X=              0.0000    Y=              0.0000    Z=              0.0000  Tot=              0.0000
 Quadrupole moment (field-independent basis, Debye-Ang):
   XX=            -43.2464   YY=            -43.2464   ZZ=            -35.0252
   XY=              0.0000   XZ=              0.0000   YZ=              0.0000
 Traceless Quadrupole moment (field-independent basis, Debye-Ang):
   XX=             -2.7404   YY=             -2.7404   ZZ=              5.4808
   XY=              0.0000   XZ=              0.0000   YZ=              0.0000
 Octapole moment (field-independent basis, Debye-Ang**2):
  XXX=              0.0000  YYY=              0.0000  ZZZ=              0.0000  XYY=              0.0000
  XXY=              0.0000  XXZ=              0.0000  XZZ=              0.0000  YZZ=              0.0000
  YYZ=              0.0000  XYZ=              0.0000
 Hexadecapole moment (field-independent basis, Debye-Ang**3):
 XXXX=            -67.7785 YYYY=            -67.7785 ZZZZ=           -478.3789 XXXY=              0.0000
 XXXZ=              0.0000 YYYX=              0.0000 YYYZ=              0.0000 ZZZX=              0.0000
 ZZZY=              0.0000 XXYY=            -22.5928 XXZZ=            -94.5009 YYZZ=            -94.5009
 XXYZ=              0.0000 YYXZ=              0.0000 ZZXY=              0.0000
 N-N= 4.250736195547D+02 E-N=-2.547063396709D+04  KE= 1.030465367513D+04
 Symmetry AG   KE= 3.567557132598D+03
 Symmetry B1G  KE= 1.263495498149D+02
 Symmetry B2G  KE= 7.298001587838D+02
 Symmetry B3G  KE= 7.298001587838D+02
 Symmetry AU   KE= 1.264692807135D+02
 Symmetry B1U  KE= 3.566567087500D+03
 Symmetry B2U  KE= 7.290551534678D+02
 Symmetry B3U  KE= 7.290551534678D+02
 No NMR shielding tensors so no spin-rotation constants.
 Leave Link  601 at Sun Oct 19 14:19:09 2025, MaxMem=    33554432 cpu:         0.0
 (Enter C:\G09W\l9999.exe)
 1|1|UNPC-PRO|SP|RB3LYP|3-21G|Ag2|INANI|19-Oct-2025|0||#p b3lyp/3-21g||
 Title Card Required||0,1|Ag,0,0.,0.,2.75|Ag,0,0.,0.,0.||Version=IA32W-
 G09RevD.01|State=1-SGG|HF=-10352.6304427|RMSD=3.595e-009|Dipole=0.,0.,
 0.|Quadrupole=-2.037411,-2.037411,4.074822,0.,0.,0.|PG=D*H [C*(Ag1.Ag1
 )]||@


 THE REASON MAN'S BEST FRIEND IS A DOG IS BECAUSE
 HE WAGS HIS TAIL INSTEAD OF HIS TONGUE.
 Job cpu time:       0 days  0 hours  0 minutes  2.0 seconds.
 File lengths (MBytes):  RWF=      5 Int=      0 D2E=      0 Chk=      1 Scr=      1
 Normal termination of Gaussian 09 at Sun Oct 19 14:19:10 2025.
