 Entering Link 1 = C:\G09W\l1.exe PID=      7484.
  
 Copyright (c) 1988,1990,1992,1993,1995,1998,2003,2009,2013,
            Gaussian, Inc.  All Rights Reserved.
  
 This is part of the Gaussian(R) 09 program.  It is based on
 the Gaussian(R) 03 system (copyright 2003, Gaussian, Inc.),
 the Gaussian(R) 98 system (copyright 1998, Gaussian, Inc.),
 the Gaussian(R) 94 system (copyright 1995, Gaussian, Inc.),
 the Gaussian 92(TM) system (copyright 1992, Gaussian, Inc.),
 the Gaussian 90(TM) system (copyright 1990, Gaussian, Inc.),
 the Gaussian 88(TM) system (copyright 1988, Gaussian, Inc.),
 the Gaussian 86(TM) system (copyright 1986, Carnegie Mellon
 University), and the Gaussian 82(TM) system (copyright 1983,
 Carnegie Mellon University). Gaussian is a federally registered
 trademark of Gaussian, Inc.
  
 This software contains proprietary and confidential information,
 including trade secrets, belonging to Gaussian, Inc.
  
 This software is provided under written license and may be
 used, copied, transmitted, or stored only in accord with that
 written license.
  
 The following legend is applicable only to US Government
 contracts under FAR:
  
                    RESTRICTED RIGHTS LEGEND
  
 Use, reproduction and disclosure by the US Government is
 subject to restrictions as set forth in subparagraphs (a)
 and (c) of the Commercial Computer Software - Restricted
 Rights clause in FAR 52.227-19.
  
 Gaussian, Inc.
 340 Quinnipiac St., Bldg. 40, Wallingford CT 06492
  
  
 ---------------------------------------------------------------
 Warning -- This program may not be used in any manner that
 competes with the business of Gaussian, Inc. or will provide
 assistance to any competitor of Gaussian, Inc.  The licensee
 of this program is prohibited from giving any competitor of
 Gaussian, Inc. access to this program.  By using this program,
 the user acknowledges that Gaussian, Inc. is engaged in the
 business of creating and licensing software in the field of
 computational chemistry and represents and warrants to the
 licensee that it is not a competitor of Gaussian, Inc. and that
 it will not use this program in any manner prohibited above.
 ---------------------------------------------------------------
  

 Cite this work as:
 Gaussian 09, Revision D.01,
 M. J. Frisch, G. W. Trucks, H. B. Schlegel, G. E. Scuseria, 
 M. A. Robb, J. R. Cheeseman, G. Scalmani, V. Barone, B. Mennucci, 
 G. A. Petersson, H. Nakatsuji, M. Caricato, X. Li, H. P. Hratchian, 
 A. F. Izmaylov, J. Bloino, G. Zheng, J. L. Sonnenberg, M. Hada, 
 M. Ehara, K. Toyota, R. Fukuda, J. Hasegawa, M. Ishida, T. Nakajima, 
 Y. Honda, O. Kitao, H. Nakai, T. Vreven, J. A. Montgomery, Jr., 
 J. E. Peralta, F. Ogliaro, M. Bearpark, J. J. Heyd, E. Brothers, 
 K. N. Kudin, V. N. Staroverov, T. Keith, R. Kobayashi, J. Normand, 
 K. Raghavachari, A. Rendell, J. C. Burant, S. S. Iyengar, J. Tomasi, 
 M. Cossi, N. Rega, J. M. Millam, M. Klene, J. E. Knox, J. B. Cross, 
 V. Bakken, C. Adamo, J. Jaramillo, R. Gomperts, R. E. Stratmann, 
 O. Yazyev, A. J. Austin, R. Cammi, C. Pomelli, J. W. Ochterski, 
 R. L. Martin, K. Morokuma, V. G. Zakrzewski, G. A. Voth, 
 P. Salvador, J. J. Dannenberg, S. Dapprich, A. D. Daniels, 
 O. Farkas, J. B. Foresman, J. V. Ortiz, J. Cioslowski, 
 and D. J. Fox, Gaussian, Inc., Wallingford CT, 2013.
 
 ******************************************
 Gaussian 09:  IA32W-G09RevD.01 24-Apr-2013
                19-Oct-2025 
 ******************************************
 %chk=C:\Users\inani\Documents\AG\AG.chk
 --------------
 #p b3lyp/3-21g
 --------------
 1/38=1/1;
 2/12=2,17=6,18=5,40=1/2;
 3/5=5,11=2,16=1,25=1,30=1,74=-5/1,2,3;
 4//1;
 5/5=2,38=5/2;
 6/7=2,8=2,9=2,10=2,28=1/1;
 99/5=1,9=1/99;
 Leave Link    1 at Sun Oct 19 14:19:10 2025, MaxMem=           0 cpu:         0.0
 (Enter C:\G09W\l101.exe)
 -------------------
 Title Card Required
 -------------------
 Symbolic Z-matrix:
 Charge =  0 Multiplicity = 1
 Ag                    0.        0.        3. 
 Ag                    0.        0.        0. 
 
 NAtoms=      2 NQM=        2 NQMF=       0 NMMI=      0 NMMIF=      0
                NMic=       0 NMicF=      0.
                    Isotopes and Nuclear Properties:
 (Nuclear quadrupole moments (NQMom) in fm**2, nuclear magnetic moments (NMagM)
  in nuclear magnetons)

  Atom         1           2
 IAtWgt=         107         107
 AtmWgt= 106.9050900 106.9050900
 NucSpn=           1           1
 AtZEff=   0.0000000   0.0000000
 NQMom=    0.0000000   0.0000000
 NMagM=   -0.1135700  -0.1135700
 AtZNuc=  47.0000000  47.0000000
 Leave Link  101 at Sun Oct 19 14:19:10 2025, MaxMem=    33554432 cpu:         0.0
 (Enter C:\G09W\l202.exe)
                          Input orientation:                          
 ---------------------------------------------------------------------
 Center     Atomic      Atomic             Coordinates (Angstroms)
 Number     Number       Type             X           Y           Z
 ---------------------------------------------------------------------
      1         47           0        0.000000    0.000000    3.000000
      2         47           0        0.000000    0.000000    0.000000
 ---------------------------------------------------------------------
 Stoichiometry    Ag2
 Framework group  D*H[C*(Ag.Ag)]
 Deg. of freedom     1
 Full point group                 D*H     NOp   8
 Largest Abelian subgroup         D2H     NOp   8
 Largest concise Abelian subgroup C2      NOp   2
                         Standard orientation:                         
 ---------------------------------------------------------------------
 Center     Atomic      Atomic             Coordinates (Angstroms)
 Number     Number       Type             X           Y           Z
 ---------------------------------------------------------------------
      1         47           0        0.000000    0.000000    1.500000
      2         47           0        0.000000    0.000000   -1.500000
 ---------------------------------------------------------------------
 Rotational constants (GHZ):      0.0000000      1.0505248      1.0505248
 Leave Link  202 at Sun Oct 19 14:19:10 2025, MaxMem=    33554432 cpu:         0.0
 (Enter C:\G09W\l301.exe)
 Standard basis: 3-21G (6D, 7F)
 Ernie: Thresh=  0.10000D-02 Tol=  0.10000D-05 Strict=F.
 There are    20 symmetry adapted cartesian basis functions of AG  symmetry.
 There are     3 symmetry adapted cartesian basis functions of B1G symmetry.
 There are     8 symmetry adapted cartesian basis functions of B2G symmetry.
 There are     8 symmetry adapted cartesian basis functions of B3G symmetry.
 There are     3 symmetry adapted cartesian basis functions of AU  symmetry.
 There are    20 symmetry adapted cartesian basis functions of B1U symmetry.
 There are     8 symmetry adapted cartesian basis functions of B2U symmetry.
 There are     8 symmetry adapted cartesian basis functions of B3U symmetry.
 There are    20 symmetry adapted basis functions of AG  symmetry.
 There are     3 symmetry adapted basis functions of B1G symmetry.
 There are     8 symmetry adapted basis functions of B2G symmetry.
 There are     8 symmetry adapted basis functions of B3G symmetry.
 There are     3 symmetry adapted basis functions of AU  symmetry.
 There are    20 symmetry adapted basis functions of B1U symmetry.
 There are     8 symmetry adapted basis functions of B2U symmetry.
 There are     8 symmetry adapted basis functions of B3U symmetry.
    78 basis functions,   174 primitive gaussians,    78 cartesian basis functions
    47 alpha electrons       47 beta electrons
       nuclear repulsion energy       389.6508179251 Hartrees.
 IExCor=  402 DFT=T Ex+Corr=B3LYP ExCW=0 ScaHFX=  0.200000
 ScaDFX=  0.800000  0.720000  1.000000  0.810000 ScalE2=  1.000000  1.000000
 IRadAn=      0 IRanWt=     -1 IRanGd=            0 ICorTp=0 IEmpDi=  4
 NAtoms=    2 NActive=    2 NUniq=    1 SFac= 4.00D+00 NAtFMM=   60 NAOKFM=F Big=F
 Integral buffers will be    262144 words long.
 Raffenetti 2 integral format.
 Two-electron integral symmetry is turned on.
 Leave Link  301 at Sun Oct 19 14:19:10 2025, MaxMem=    33554432 cpu:         0.0
 (Enter C:\G09W\l302.exe)
 NPDir=0 NMtPBC=     1 NCelOv=     1 NCel=       1 NClECP=     1 NCelD=      1
         NCelK=      1 NCelE2=     1 NClLst=     1 CellRange=     0.0.
 One-electron integrals computed using PRISM.
 One-electron integral symmetry used in STVInt
 NBasis=    78 RedAO= T EigKep=  1.76D-03  NBF=    20     3     8     8     3    20     8     8
 NBsUse=    78 1.00D-06 EigRej= -1.00D+00 NBFU=    20     3     8     8     3    20     8     8
 Precomputing XC quadrature grid using
 IXCGrd= 4 IRadAn=           0 IRanWt=          -1 IRanGd=           0 AccXCQ= 0.00D+00.
 Defaulting to unpruned grid for atomic number  47.
 Generated NRdTot=       0 NPtTot=           0 NUsed=           0 NTot=          16
 NSgBfM=    63    63    63    63    63 MxSgAt=     2 MxSgA2=     2.
 Leave Link  302 at Sun Oct 19 14:19:10 2025, MaxMem=    33554432 cpu:         0.0
 (Enter C:\G09W\l303.exe)
 DipDrv:  MaxL=1.
 Leave Link  303 at Sun Oct 19 14:19:10 2025, MaxMem=    33554432 cpu:         0.0
 (Enter C:\G09W\l401.exe)
 ExpMin= 3.49D-02 ExpMax= 1.12D+04 ExpMxC= 1.12D+04 IAcc=3 IRadAn=         5 AccDes= 0.00D+00
 Harris functional with IExCor=  402 and IRadAn=       5 diagonalized for initial guess.
 HarFok:  IExCor=  402 AccDes= 0.00D+00 IRadAn=         5 IDoV= 1 UseB2=F ITyADJ=14
 ICtDFT=  3500011 ScaDFX=  1.000000  1.000000  1.000000  1.000000
 Defaulting to unpruned grid for atomic number  47.
 FoFCou: FMM=F IPFlag=           0 FMFlag=      100000 FMFlg1=           0
         NFxFlg=           0 DoJE=T BraDBF=F KetDBF=T FulRan=T
         wScrn=  0.000000 ICntrl=     500 IOpCl=  0 I1Cent=   200000004 NGrid=           0
         NMat0=    1 NMatS0=      1 NMatT0=    0 NMatD0=    1 NMtDS0=    0 NMtDT0=    0
 Petite list used in FoFCou.
 Harris En= -10353.7586692610    
 JPrj=0 DoOrth=F DoCkMO=F.
 Initial guess orbital symmetries:
       Occupied  (SGG) (SGU) (SGG) (SGU) (SGU) (SGG) (PIG) (PIG)
                 (PIU) (PIU) (SGU) (SGG) (SGU) (SGG) (PIG) (PIG)
                 (PIU) (PIU) (SGU) (PIG) (PIG) (PIU) (PIU) (SGG)
                 (DLTU) (DLTU) (DLTG) (DLTG) (SGG) (SGU) (SGG)
                 (SGU) (PIG) (PIG) (PIU) (PIU) (SGG) (PIU) (PIU)
                 (DLTG) (DLTG) (DLTU) (DLTU) (PIG) (PIG) (SGU)
                 (SGG)
       Virtual   (SGU) (PIU) (PIU) (SGG) (PIG) (PIG) (SGU) (SGG)
                 (SGG) (PIU) (PIU) (SGU) (PIG) (PIG) (SGU) (SGG)
                 (SGU) (SGG) (PIU) (PIU) (DLTG) (DLTG) (DLTU) (DLTU)
                 (PIG) (PIG) (SGU) (SGG) (SGU) (SGU) (SGG)
 The electronic state of the initial guess is 1-SGG.
 Leave Link  401 at Sun Oct 19 14:19:10 2025, MaxMem=    33554432 cpu:         0.0
 (Enter C:\G09W\l502.exe)
 Closed shell SCF:
 Using DIIS extrapolation, IDIIS=  1040.
 Integral symmetry usage will be decided dynamically.
 Keep R1 ints in memory in symmetry-blocked form, NReq=5685550.
 IVT=       37753 IEndB=       37753 NGot=    33554432 MDV=    32866241
 LenX=    32866241 LenY=    32859716
 Requested convergence on RMS density matrix=1.00D-08 within 128 cycles.
 Requested convergence on MAX density matrix=1.00D-06.
 Requested convergence on             energy=1.00D-06.
 No special actions if energy rises.
 FoFCou: FMM=F IPFlag=           0 FMFlag=           0 FMFlg1=           0
         NFxFlg=           0 DoJE=F BraDBF=F KetDBF=F FulRan=T
         wScrn=  0.000000 ICntrl=     600 IOpCl=  0 I1Cent=           0 NGrid=           0
         NMat0=    1 NMatS0=   3081 NMatT0=    0 NMatD0=    1 NMtDS0=    0 NMtDT0=    0
 Petite list used in FoFCou.

 Cycle   1  Pass 1  IDiag  1:
 Defaulting to unpruned grid for atomic number  47.
 E= -10352.4668866788    
 DIIS: error= 5.30D-01 at cycle   1 NSaved=   1.
 NSaved= 1 IEnMin= 1 EnMin= -10352.4668866788     IErMin= 1 ErrMin= 5.30D-01
 ErrMax= 5.30D-01  0.00D+00 EMaxC= 1.00D-01 BMatC= 4.26D+00 BMatP= 4.26D+00
 IDIUse=3 WtCom= 0.00D+00 WtEn= 1.00D+00
 Coeff-Com:  0.100D+01
 Coeff-En:   0.100D+01
 Coeff:      0.100D+01
 Gap=     0.079 Goal=   None    Shift=    0.000
 GapD=    0.079 DampG=0.500 DampE=0.125 DampFc=0.1250 IDamp=-1.
 Damping current iteration by 1.25D-01
 RMSDP=1.57D-02 MaxDP=4.41D-01              OVMax= 0.00D+00

 Cycle   2  Pass 1  IDiag  1:
 E= -10352.4966442324     Delta-E=       -0.029757553648 Rises=F Damp=T
 DIIS: error= 4.61D-01 at cycle   2 NSaved=   2.
 NSaved= 2 IEnMin= 2 EnMin= -10352.4966442324     IErMin= 2 ErrMin= 4.61D-01
 ErrMax= 4.61D-01  0.00D+00 EMaxC= 1.00D-01 BMatC= 3.17D+00 BMatP= 4.26D+00
 IDIUse=3 WtCom= 0.00D+00 WtEn= 1.00D+00
 Coeff-Com: -0.601D+01 0.701D+01
 Coeff-En:   0.000D+00 0.100D+01
 Coeff:      0.000D+00 0.100D+01
 Gap=     0.076 Goal=   None    Shift=    0.000
 RMSDP=1.23D-02 MaxDP=3.46D-01 DE=-2.98D-02 OVMax= 0.00D+00

 Cycle   3  Pass 1  IDiag  1:
 E= -10352.5556995777     Delta-E=       -0.059055345249 Rises=F Damp=F
 DIIS: error= 3.95D-02 at cycle   3 NSaved=   3.
 NSaved= 3 IEnMin= 3 EnMin= -10352.5556995777     IErMin= 3 ErrMin= 3.95D-02
 ErrMax= 3.95D-02  0.00D+00 EMaxC= 1.00D-01 BMatC= 1.27D-01 BMatP= 3.17D+00
 IDIUse=3 WtCom= 6.05D-01 WtEn= 3.95D-01
 Large coefficients: NSaved=  3 BigCof=   18.63 CofMax=   10.00 Det=-2.43D-04
 Inversion failed.  Reducing to  2 matrices.
 Coeff-Com:  0.968D-01 0.903D+00
 Coeff-En:   0.269D+00 0.731D+00
 Coeff:      0.165D+00 0.835D+00
 Gap=     0.084 Goal=   None    Shift=    0.000
 RMSDP=9.08D-03 MaxDP=1.88D-01 DE=-5.91D-02 OVMax= 0.00D+00

 Cycle   4  Pass 1  IDiag  1:
 E= -10352.5788758881     Delta-E=       -0.023176310473 Rises=F Damp=F
 DIIS: error= 2.96D-02 at cycle   4 NSaved=   3.
 NSaved= 3 IEnMin= 3 EnMin= -10352.5788758881     IErMin= 3 ErrMin= 2.96D-02
 ErrMax= 2.96D-02  0.00D+00 EMaxC= 1.00D-01 BMatC= 7.77D-02 BMatP= 1.27D-01
 IDIUse=3 WtCom= 7.04D-01 WtEn= 2.96D-01
 Coeff-Com:  0.931D-02 0.443D+00 0.548D+00
 Coeff-En:   0.000D+00 0.395D+00 0.605D+00
 Coeff:      0.655D-02 0.429D+00 0.565D+00
 Gap=     0.087 Goal=   None    Shift=    0.000
 RMSDP=4.73D-03 MaxDP=7.85D-02 DE=-2.32D-02 OVMax= 0.00D+00

 Cycle   5  Pass 1  IDiag  1:
 E= -10352.6200289707     Delta-E=       -0.041153082608 Rises=F Damp=F
 DIIS: error= 1.66D-03 at cycle   5 NSaved=   4.
 NSaved= 4 IEnMin= 4 EnMin= -10352.6200289707     IErMin= 4 ErrMin= 1.66D-03
 ErrMax= 1.66D-03  0.00D+00 EMaxC= 1.00D-01 BMatC= 2.76D-04 BMatP= 7.77D-02
 IDIUse=3 WtCom= 9.83D-01 WtEn= 1.66D-02
 Coeff-Com:  0.116D-02 0.691D-01 0.131D+00 0.798D+00
 Coeff-En:   0.000D+00 0.000D+00 0.000D+00 0.100D+01
 Coeff:      0.114D-02 0.680D-01 0.129D+00 0.802D+00
 Gap=     0.084 Goal=   None    Shift=    0.000
 RMSDP=3.69D-04 MaxDP=6.07D-03 DE=-4.12D-02 OVMax= 0.00D+00

 Cycle   6  Pass 1  IDiag  1:
 E= -10352.6202399056     Delta-E=       -0.000210934902 Rises=F Damp=F
 DIIS: error= 1.64D-04 at cycle   6 NSaved=   5.
 NSaved= 5 IEnMin= 5 EnMin= -10352.6202399056     IErMin= 5 ErrMin= 1.64D-04
 ErrMax= 1.64D-04  0.00D+00 EMaxC= 1.00D-01 BMatC= 1.45D-06 BMatP= 2.76D-04
 IDIUse=3 WtCom= 9.98D-01 WtEn= 1.64D-03
 Coeff-Com: -0.252D-04 0.299D-02 0.144D-01 0.199D+00 0.784D+00
 Coeff-En:   0.000D+00 0.000D+00 0.000D+00 0.000D+00 0.100D+01
 Coeff:     -0.251D-04 0.299D-02 0.144D-01 0.199D+00 0.784D+00
 Gap=     0.084 Goal=   None    Shift=    0.000
 RMSDP=5.43D-05 MaxDP=7.51D-04 DE=-2.11D-04 OVMax= 0.00D+00

 Cycle   7  Pass 1  IDiag  1:
 E= -10352.6202448779     Delta-E=       -0.000004972255 Rises=F Damp=F
 DIIS: error= 9.44D-06 at cycle   7 NSaved=   6.
 NSaved= 6 IEnMin= 6 EnMin= -10352.6202448779     IErMin= 6 ErrMin= 9.44D-06
 ErrMax= 9.44D-06  0.00D+00 EMaxC= 1.00D-01 BMatC= 8.34D-09 BMatP= 1.45D-06
 IDIUse=1 WtCom= 1.00D+00 WtEn= 0.00D+00
 Coeff-Com: -0.775D-05-0.695D-03-0.198D-02-0.162D-01 0.617D-02 0.101D+01
 Coeff:     -0.775D-05-0.695D-03-0.198D-02-0.162D-01 0.617D-02 0.101D+01
 Gap=     0.084 Goal=   None    Shift=    0.000
 RMSDP=5.63D-06 MaxDP=1.06D-04 DE=-4.97D-06 OVMax= 0.00D+00

 Cycle   8  Pass 1  IDiag  1:
 E= -10352.6202449074     Delta-E=       -0.000000029493 Rises=F Damp=F
 DIIS: error= 1.13D-06 at cycle   8 NSaved=   7.
 NSaved= 7 IEnMin= 7 EnMin= -10352.6202449074     IErMin= 7 ErrMin= 1.13D-06
 ErrMax= 1.13D-06  0.00D+00 EMaxC= 1.00D-01 BMatC= 1.41D-10 BMatP= 8.34D-09
 IDIUse=1 WtCom= 1.00D+00 WtEn= 0.00D+00
 Coeff-Com:  0.171D-06 0.290D-04 0.171D-03 0.997D-03-0.466D-02-0.186D+00
 Coeff-Com:  0.119D+01
 Coeff:      0.171D-06 0.290D-04 0.171D-03 0.997D-03-0.466D-02-0.186D+00
 Coeff:      0.119D+01
 Gap=     0.084 Goal=   None    Shift=    0.000
 RMSDP=7.99D-07 MaxDP=1.38D-05 DE=-2.95D-08 OVMax= 0.00D+00

 Cycle   9  Pass 1  IDiag  1:
 E= -10352.6202449080     Delta-E=       -0.000000000613 Rises=F Damp=F
 DIIS: error= 5.58D-08 at cycle   9 NSaved=   8.
 NSaved= 8 IEnMin= 8 EnMin= -10352.6202449080     IErMin= 8 ErrMin= 5.58D-08
 ErrMax= 5.58D-08  0.00D+00 EMaxC= 1.00D-01 BMatC= 2.48D-13 BMatP= 1.41D-10
 IDIUse=1 WtCom= 1.00D+00 WtEn= 0.00D+00
 Coeff-Com:  0.106D-06 0.657D-05 0.754D-05-0.285D-05 0.330D-04 0.490D-04
 Coeff-Com: -0.320D-01 0.103D+01
 Coeff:      0.106D-06 0.657D-05 0.754D-05-0.285D-05 0.330D-04 0.490D-04
 Coeff:     -0.320D-01 0.103D+01
 Gap=     0.084 Goal=   None    Shift=    0.000
 RMSDP=4.58D-08 MaxDP=4.80D-07 DE=-6.13D-10 OVMax= 0.00D+00

 Cycle  10  Pass 1  IDiag  1:
 E= -10352.6202449080     Delta-E=        0.000000000004 Rises=F Damp=F
 DIIS: error= 1.20D-08 at cycle  10 NSaved=   9.
 NSaved= 9 IEnMin= 8 EnMin= -10352.6202449080     IErMin= 9 ErrMin= 1.20D-08
 ErrMax= 1.20D-08  0.00D+00 EMaxC= 1.00D-01 BMatC= 1.51D-14 BMatP= 2.48D-13
 IDIUse=1 WtCom= 1.00D+00 WtEn= 0.00D+00
 Coeff-Com: -0.323D-08-0.220D-06-0.655D-06 0.681D-05 0.375D-04 0.626D-03
 Coeff-Com: -0.306D-02-0.920D-01 0.109D+01
 Coeff:     -0.323D-08-0.220D-06-0.655D-06 0.681D-05 0.375D-04 0.626D-03
 Coeff:     -0.306D-02-0.920D-01 0.109D+01
 Gap=     0.084 Goal=   None    Shift=    0.000
 RMSDP=3.36D-09 MaxDP=4.40D-08 DE= 3.64D-12 OVMax= 0.00D+00

 SCF Done:  E(RB3LYP) =  -10352.6202449     A.U. after   10 cycles
            NFock= 10  Conv=0.34D-08     -V/T= 2.0047
 KE= 1.030467354603D+04 PE=-2.540015304607D+04 EE= 4.353208437207D+03
 Leave Link  502 at Sun Oct 19 14:19:11 2025, MaxMem=    33554432 cpu:         1.0
 (Enter C:\G09W\l601.exe)
 Copying SCF densities to generalized density rwf, IOpCl= 0 IROHF=0.

 **********************************************************************

            Population analysis using the SCF density.

 **********************************************************************

 Orbital symmetries:
       Occupied  (SGG) (SGU) (SGG) (SGU) (SGU) (SGG) (PIG) (PIG)
                 (PIU) (PIU) (SGU) (SGG) (SGG) (SGU) (PIG) (PIG)
                 (PIU) (PIU) (SGU) (PIG) (PIG) (SGG) (PIU) (PIU)
                 (DLTU) (DLTU) (DLTG) (DLTG) (SGG) (SGU) (SGG)
                 (SGU) (PIU) (PIU) (PIG) (PIG) (SGG) (PIU) (PIU)
                 (DLTG) (DLTG) (DLTU) (DLTU) (PIG) (PIG) (SGU)
                 (SGG)
       Virtual   (SGU) (PIU) (PIU) (SGG) (PIG) (PIG) (SGU) (SGG)
                 (SGU) (SGG) (PIU) (PIU) (PIG) (PIG) (SGU) (SGG)
                 (SGU) (SGG) (PIU) (PIU) (DLTG) (DLTG) (DLTU) (DLTU)
                 (PIG) (PIG) (SGU) (SGG) (SGU) (SGU) (SGG)
 The electronic state is 1-SGG.
 Alpha  occ. eigenvalues -- -898.84016-898.84013-130.56028-130.56027-121.06254
 Alpha  occ. eigenvalues -- -121.06245-121.06200-121.06200-121.06191-121.06191
 Alpha  occ. eigenvalues --  -24.16412 -24.16411 -20.13167 -20.13167 -20.13107
 Alpha  occ. eigenvalues --  -20.13107 -20.13106 -20.13106 -13.63437 -13.63392
 Alpha  occ. eigenvalues --  -13.63392 -13.63382 -13.63378 -13.63378 -13.63357
 Alpha  occ. eigenvalues --  -13.63357 -13.63356 -13.63356  -3.33692  -3.33681
 Alpha  occ. eigenvalues --   -2.06179  -2.05993  -2.05814  -2.05814  -2.05810
 Alpha  occ. eigenvalues --   -2.05810  -0.30868  -0.29779  -0.29779  -0.29056
 Alpha  occ. eigenvalues --   -0.29055  -0.28935  -0.28935  -0.28721  -0.28721
 Alpha  occ. eigenvalues --   -0.28410  -0.16825
 Alpha virt. eigenvalues --   -0.08396  -0.01799  -0.01799  -0.00272   0.02747
 Alpha virt. eigenvalues --    0.02747   0.06112   0.08943   0.14003   0.14282
 Alpha virt. eigenvalues --    0.14894   0.14894   0.18624   0.18624   0.27304
 Alpha virt. eigenvalues --    0.73949   0.77177   1.23728   1.27082   1.27082
 Alpha virt. eigenvalues --    1.31352   1.31353   1.32463   1.32464   1.38041
 Alpha virt. eigenvalues --    1.38041   1.61339   4.45290   4.47162 195.49627
 Alpha virt. eigenvalues --  195.50344
          Condensed to atoms (all electrons):
               1          2
     1  Ag  46.858194   0.141806
     2  Ag   0.141806  46.858194
 Mulliken charges:
               1
     1  Ag   0.000000
     2  Ag   0.000000
 Sum of Mulliken charges =   0.00000
 Mulliken charges with hydrogens summed into heavy atoms:
               1
     1  Ag   0.000000
     2  Ag   0.000000
 Electronic spatial extent (au):  <R**2>=            845.3840
 Charge=              0.0000 electrons
 Dipole moment (field-independent basis, Debye):
    X=              0.0000    Y=              0.0000    Z=              0.0000  Tot=              0.0000
 Quadrupole moment (field-independent basis, Debye-Ang):
   XX=            -43.2625   YY=            -43.2625   ZZ=            -34.6677
   XY=              0.0000   XZ=              0.0000   YZ=              0.0000
 Traceless Quadrupole moment (field-independent basis, Debye-Ang):
   XX=             -2.8649   YY=             -2.8649   ZZ=              5.7299
   XY=              0.0000   XZ=              0.0000   YZ=              0.0000
 Octapole moment (field-independent basis, Debye-Ang**2):
  XXX=              0.0000  YYY=              0.0000  ZZZ=              0.0000  XYY=              0.0000
  XXY=              0.0000  XXZ=              0.0000  XZZ=              0.0000  YZZ=              0.0000
  YYZ=              0.0000  XYZ=              0.0000
 Hexadecapole moment (field-independent basis, Debye-Ang**3):
 XXXX=            -68.9404 YYYY=            -68.9404 ZZZZ=           -563.7545 XXXY=              0.0000
 XXXZ=              0.0000 YYYX=              0.0000 YYYZ=              0.0000 ZZZX=              0.0000
 ZZZY=              0.0000 XXYY=            -22.9801 XXZZ=           -109.6455 YYZZ=           -109.6455
 XXYZ=              0.0000 YYXZ=              0.0000 ZZXY=              0.0000
 N-N= 3.896508179251D+02 E-N=-2.540015305275D+04  KE= 1.030467354603D+04
 Symmetry AG   KE= 3.567668243446D+03
 Symmetry B1G  KE= 1.263614604038D+02
 Symmetry B2G  KE= 7.296568346019D+02
 Symmetry B3G  KE= 7.296568346019D+02
 Symmetry AU   KE= 1.264163926035D+02
 Symmetry B1U  KE= 3.566366766649D+03
 Symmetry B2U  KE= 7.292735068613D+02
 Symmetry B3U  KE= 7.292735068613D+02
 No NMR shielding tensors so no spin-rotation constants.
 Leave Link  601 at Sun Oct 19 14:19:11 2025, MaxMem=    33554432 cpu:         0.0
 (Enter C:\G09W\l9999.exe)
 1|1|UNPC-PRO|SP|RB3LYP|3-21G|Ag2|INANI|19-Oct-2025|0||#p b3lyp/3-21g||
 Title Card Required||0,1|Ag,0,0.,0.,3.|Ag,0,0.,0.,0.||Version=IA32W-G0
 9RevD.01|State=1-SGG|HF=-10352.6202449|RMSD=3.358e-009|Dipole=0.,0.,0.
 |Quadrupole=-2.1300185,-2.1300185,4.2600371,0.,0.,0.|PG=D*H [C*(Ag1.Ag
 1)]||@


 THE REASON MAN'S BEST FRIEND IS A DOG IS BECAUSE
 HE WAGS HIS TAIL INSTEAD OF HIS TONGUE.
 Job cpu time:       0 days  0 hours  0 minutes  1.0 seconds.
 File lengths (MBytes):  RWF=      5 Int=      0 D2E=      0 Chk=      1 Scr=      1
 Normal termination of Gaussian 09 at Sun Oct 19 14:19:11 2025.
