 Entering Link 1 = C:\G09W\l1.exe PID=      1464.
  
 Copyright (c) 1988,1990,1992,1993,1995,1998,2003,2009,2013,
            Gaussian, Inc.  All Rights Reserved.
  
 This is part of the Gaussian(R) 09 program.  It is based on
 the Gaussian(R) 03 system (copyright 2003, Gaussian, Inc.),
 the Gaussian(R) 98 system (copyright 1998, Gaussian, Inc.),
 the Gaussian(R) 94 system (copyright 1995, Gaussian, Inc.),
 the Gaussian 92(TM) system (copyright 1992, Gaussian, Inc.),
 the Gaussian 90(TM) system (copyright 1990, Gaussian, Inc.),
 the Gaussian 88(TM) system (copyright 1988, Gaussian, Inc.),
 the Gaussian 86(TM) system (copyright 1986, Carnegie Mellon
 University), and the Gaussian 82(TM) system (copyright 1983,
 Carnegie Mellon University). Gaussian is a federally registered
 trademark of Gaussian, Inc.
  
 This software contains proprietary and confidential information,
 including trade secrets, belonging to Gaussian, Inc.
  
 This software is provided under written license and may be
 used, copied, transmitted, or stored only in accord with that
 written license.
  
 The following legend is applicable only to US Government
 contracts under FAR:
  
                    RESTRICTED RIGHTS LEGEND
  
 Use, reproduction and disclosure by the US Government is
 subject to restrictions as set forth in subparagraphs (a)
 and (c) of the Commercial Computer Software - Restricted
 Rights clause in FAR 52.227-19.
  
 Gaussian, Inc.
 340 Quinnipiac St., Bldg. 40, Wallingford CT 06492
  
  
 ---------------------------------------------------------------
 Warning -- This program may not be used in any manner that
 competes with the business of Gaussian, Inc. or will provide
 assistance to any competitor of Gaussian, Inc.  The licensee
 of this program is prohibited from giving any competitor of
 Gaussian, Inc. access to this program.  By using this program,
 the user acknowledges that Gaussian, Inc. is engaged in the
 business of creating and licensing software in the field of
 computational chemistry and represents and warrants to the
 licensee that it is not a competitor of Gaussian, Inc. and that
 it will not use this program in any manner prohibited above.
 ---------------------------------------------------------------
  

 Cite this work as:
 Gaussian 09, Revision D.01,
 M. J. Frisch, G. W. Trucks, H. B. Schlegel, G. E. Scuseria, 
 M. A. Robb, J. R. Cheeseman, G. Scalmani, V. Barone, B. Mennucci, 
 G. A. Petersson, H. Nakatsuji, M. Caricato, X. Li, H. P. Hratchian, 
 A. F. Izmaylov, J. Bloino, G. Zheng, J. L. Sonnenberg, M. Hada, 
 M. Ehara, K. Toyota, R. Fukuda, J. Hasegawa, M. Ishida, T. Nakajima, 
 Y. Honda, O. Kitao, H. Nakai, T. Vreven, J. A. Montgomery, Jr., 
 J. E. Peralta, F. Ogliaro, M. Bearpark, J. J. Heyd, E. Brothers, 
 K. N. Kudin, V. N. Staroverov, T. Keith, R. Kobayashi, J. Normand, 
 K. Raghavachari, A. Rendell, J. C. Burant, S. S. Iyengar, J. Tomasi, 
 M. Cossi, N. Rega, J. M. Millam, M. Klene, J. E. Knox, J. B. Cross, 
 V. Bakken, C. Adamo, J. Jaramillo, R. Gomperts, R. E. Stratmann, 
 O. Yazyev, A. J. Austin, R. Cammi, C. Pomelli, J. W. Ochterski, 
 R. L. Martin, K. Morokuma, V. G. Zakrzewski, G. A. Voth, 
 P. Salvador, J. J. Dannenberg, S. Dapprich, A. D. Daniels, 
 O. Farkas, J. B. Foresman, J. V. Ortiz, J. Cioslowski, 
 and D. J. Fox, Gaussian, Inc., Wallingford CT, 2013.
 
 ******************************************
 Gaussian 09:  IA32W-G09RevD.01 24-Apr-2013
                29-Mar-2026 
 ******************************************
 %chk=C:\Users\emman\Escritorio\quimica-enlaces\molecula\2H20.chk
 -------------
 # b3lyp/3-21g
 -------------
 1/38=1/1;
 2/12=2,17=6,18=5,40=1/2;
 3/5=5,11=2,16=1,25=1,30=1,74=-5/1,2,3;
 4//1;
 5/5=2,38=5/2;
 6/7=2,8=2,9=2,10=2,28=1/1;
 99/5=1,9=1/99;
 -----------------------------------------------
 Title Card Required - Distancia +0.60A - Paso 3
 -----------------------------------------------
 Symbolic Z-matrix:
 Charge =  0 Multiplicity = 1
 O                    -1.85392   0.51407   0. 
 H                    -0.89392   0.51407   0. 
 H                    -2.17437   1.41901   0. 
 O                    -0.82041   1.73549   0. 
 H                     0.13959   1.73549   0. 
 H                    -1.14086   2.64043   0. 
 
                          Input orientation:                          
 ---------------------------------------------------------------------
 Center     Atomic      Atomic             Coordinates (Angstroms)
 Number     Number       Type             X           Y           Z
 ---------------------------------------------------------------------
      1          8           0       -1.853916    0.514072    0.000000
      2          1           0       -0.893916    0.514072    0.000000
      3          1           0       -2.174370    1.419008    0.000000
      4          8           0       -0.820408    1.735490    0.000000
      5          1           0        0.139592    1.735490    0.000000
      6          1           0       -1.140863    2.640426    0.000000
 ---------------------------------------------------------------------
                    Distance matrix (angstroms):
                    1          2          3          4          5
     1  O    0.000000
     2  H    0.960000   0.000000
     3  H    0.960000   1.567952   0.000000
     4  O    1.600000   1.223628   1.390458   0.000000
     5  H    2.337934   1.600000   2.335505   0.960000   0.000000
     6  H    2.242727   2.140646   1.600000   0.960000   1.567952
                    6
     6  H    0.000000
 Stoichiometry    H4O2
 Framework group  CS[SG(H4O2)]
 Deg. of freedom     9
 Full point group                 CS      NOp   2
 Largest Abelian subgroup         CS      NOp   2
 Largest concise Abelian subgroup C1      NOp   1
                         Standard orientation:                         
 ---------------------------------------------------------------------
 Center     Atomic      Atomic             Coordinates (Angstroms)
 Number     Number       Type             X           Y           Z
 ---------------------------------------------------------------------
      1          8           0        0.009632   -0.910392    0.000000
      2          1           0        0.742482   -0.290288    0.000000
      3          1           0       -0.819535   -0.426572    0.000000
      4          8           0        0.009632    0.689607    0.000000
      5          1           0        0.742482    1.309712    0.000000
      6          1           0       -0.819535    1.173428    0.000000
 ---------------------------------------------------------------------
 Rotational constants (GHZ):    204.8857646     20.9148607     18.9776145
 Standard basis: 3-21G (6D, 7F)
 There are    22 symmetry adapted cartesian basis functions of A'  symmetry.
 There are     4 symmetry adapted cartesian basis functions of A"  symmetry.
 There are    22 symmetry adapted basis functions of A'  symmetry.
 There are     4 symmetry adapted basis functions of A"  symmetry.
    26 basis functions,    42 primitive gaussians,    26 cartesian basis functions
    10 alpha electrons       10 beta electrons
       nuclear repulsion energy        50.8192940444 Hartrees.
 NAtoms=    6 NActive=    6 NUniq=    6 SFac= 1.00D+00 NAtFMM=   60 NAOKFM=F Big=F
 Integral buffers will be    262144 words long.
 Raffenetti 2 integral format.
 Two-electron integral symmetry is turned on.
 One-electron integrals computed using PRISM.
 NBasis=    26 RedAO= T EigKep=  1.30D-01  NBF=    22     4
 NBsUse=    26 1.00D-06 EigRej= -1.00D+00 NBFU=    22     4
 ExpMin= 1.83D-01 ExpMax= 3.22D+02 ExpMxC= 3.22D+02 IAcc=1 IRadAn=         1 AccDes= 0.00D+00
 Harris functional with IExCor=  402 and IRadAn=       1 diagonalized for initial guess.
 HarFok:  IExCor=  402 AccDes= 0.00D+00 IRadAn=         1 IDoV= 1 UseB2=F ITyADJ=14
 ICtDFT=  3500011 ScaDFX=  1.000000  1.000000  1.000000  1.000000
 FoFCou: FMM=F IPFlag=           0 FMFlag=      100000 FMFlg1=           0
         NFxFlg=           0 DoJE=T BraDBF=F KetDBF=T FulRan=T
         wScrn=  0.000000 ICntrl=     500 IOpCl=  0 I1Cent=   200000004 NGrid=           0
         NMat0=    1 NMatS0=      1 NMatT0=    0 NMatD0=    1 NMtDS0=    0 NMtDT0=    0
 Petite list used in FoFCou.
 Initial guess orbital symmetries:
       Occupied  (A') (A') (A') (A') (A') (A') (A') (A") (A") (A')
       Virtual   (A') (A') (A') (A') (A') (A') (A') (A') (A") (A")
                 (A') (A') (A') (A') (A') (A')
 The electronic state of the initial guess is 1-A'.
 Keep R1 ints in memory in symmetry-blocked form, NReq=939158.
 Requested convergence on RMS density matrix=1.00D-08 within 128 cycles.
 Requested convergence on MAX density matrix=1.00D-06.
 Requested convergence on             energy=1.00D-06.
 No special actions if energy rises.
 Integral accuracy reduced to 1.0D-05 until final iterations.
 Initial convergence to 1.0D-05 achieved.  Increase integral accuracy.
 SCF Done:  E(RB3LYP) =  -151.672769099     A.U. after   14 cycles
            NFock= 14  Conv=0.30D-08     -V/T= 1.9953

 **********************************************************************

            Population analysis using the SCF density.

 **********************************************************************

 Orbital symmetries:
       Occupied  (A') (A') (A') (A') (A') (A') (A') (A") (A") (A')
       Virtual   (A') (A') (A') (A') (A') (A') (A') (A') (A") (A")
                 (A') (A') (A') (A') (A') (A')
 The electronic state is 1-A'.
 Alpha  occ. eigenvalues --  -19.03460 -18.91331  -1.11890  -0.92023  -0.63573
 Alpha  occ. eigenvalues --   -0.47257  -0.42696  -0.35687  -0.18942  -0.12770
 Alpha virt. eigenvalues --    0.06491   0.14184   0.19515   0.25663   0.87386
 Alpha virt. eigenvalues --    0.96498   1.00574   1.07387   1.33947   1.56348
 Alpha virt. eigenvalues --    1.64839   1.68868   1.75725   1.94760   2.73680
 Alpha virt. eigenvalues --    2.95145
          Condensed to atoms (all electrons):
               1          2          3          4          5          6
     1  O    8.429236   0.306493   0.301151  -0.507359   0.045183   0.045351
     2  H    0.306493   0.390365  -0.076541  -0.015471  -0.014440   0.009039
     3  H    0.301151  -0.076541   0.443286  -0.011178   0.009265  -0.014700
     4  O   -0.507359  -0.015471  -0.011178   9.116414   0.035304   0.059500
     5  H    0.045183  -0.014440   0.009265   0.035304   0.613285   0.049747
     6  H    0.045351   0.009039  -0.014700   0.059500   0.049747   0.564725
 Mulliken charges:
               1
     1  O   -0.620055
     2  H    0.400554
     3  H    0.348718
     4  O   -0.677210
     5  H    0.261656
     6  H    0.286337
 Sum of Mulliken charges =   0.00000
 Mulliken charges with hydrogens summed into heavy atoms:
               1
     1  O    0.129217
     4  O   -0.129217
 Electronic spatial extent (au):  <R**2>=             85.5005
 Charge=              0.0000 electrons
 Dipole moment (field-independent basis, Debye):
    X=             -0.2923    Y=              3.2613    Z=              0.0000  Tot=              3.2743
 Quadrupole moment (field-independent basis, Debye-Ang):
   XX=             -8.5475   YY=            -14.7719   ZZ=            -13.6738
   XY=              0.1405   XZ=              0.0000   YZ=              0.0000
 Traceless Quadrupole moment (field-independent basis, Debye-Ang):
   XX=              3.7835   YY=             -2.4408   ZZ=             -1.3427
   XY=              0.1405   XZ=              0.0000   YZ=              0.0000
 Octapole moment (field-independent basis, Debye-Ang**2):
  XXX=             -0.4453  YYY=              6.3428  ZZZ=              0.0000  XYY=             -0.2148
  XXY=              0.8926  XXZ=              0.0000  XZZ=             -0.0249  YZZ=              0.0305
  YYZ=              0.0000  XYZ=              0.0000
 Hexadecapole moment (field-independent basis, Debye-Ang**3):
 XXXX=            -12.8102 YYYY=            -67.1843 ZZZZ=             -8.6089 XXXY=             -0.3165
 XXXZ=              0.0000 YYYX=              0.0249 YYYZ=              0.0000 ZZZX=              0.0000
 ZZZY=              0.0000 XXYY=            -10.9087 XXZZ=             -4.0163 YYZZ=            -13.1245
 XXYZ=              0.0000 YYXZ=              0.0000 ZZXY=             -0.0829
 N-N= 5.081929404443D+01 E-N=-4.620251632801D+02  KE= 1.523822163907D+02
 Symmetry A'   KE= 1.429435954887D+02
 Symmetry A"   KE= 9.438620901988D+00
 1|1|UNPC-INANI_LAP|SP|RB3LYP|3-21G|H4O2|EMMAN|29-Mar-2026|0||# b3lyp/3
 -21g||Title Card Required - Distancia +0.60A - Paso 3||0,1|O,0,-1.8539
 157,0.51407231,0.|H,0,-0.8939157,0.51407231,0.|H,0,-2.17437029,1.41900
 815,0.|O,0,-0.82040812,1.73549037,0.|H,0,0.13959188,1.73549037,0.|H,0,
 -1.14086271,2.6404262,0.||Version=IA32W-G09RevD.01|State=1-A'|HF=-151.
 6727691|RMSD=3.018e-009|Dipole=0.7410167,1.0537581,0.|Quadrupole=0.985
 1504,0.0131298,-0.9982802,-2.2646188,0.,0.|PG=CS [SG(H4O2)]||@


 IN SO FAR AS QUANTUM MECHANICS IS CORRECT, CHEMICAL 
 QUESTIONS ARE PROBLEMS IN APPLIED MATHEMATICS.

                    -- EYRING, WALTER, & KIMBALL, 1944
 Job cpu time:       0 days  0 hours  0 minutes  2.0 seconds.
 File lengths (MBytes):  RWF=      5 Int=      0 D2E=      0 Chk=      1 Scr=      1
 Normal termination of Gaussian 09 at Sun Mar 29 02:50:30 2026.
