 Entering Link 1 = C:\G09W\l1.exe PID=     15928.
  
 Copyright (c) 1988,1990,1992,1993,1995,1998,2003,2009,2013,
            Gaussian, Inc.  All Rights Reserved.
  
 This is part of the Gaussian(R) 09 program.  It is based on
 the Gaussian(R) 03 system (copyright 2003, Gaussian, Inc.),
 the Gaussian(R) 98 system (copyright 1998, Gaussian, Inc.),
 the Gaussian(R) 94 system (copyright 1995, Gaussian, Inc.),
 the Gaussian 92(TM) system (copyright 1992, Gaussian, Inc.),
 the Gaussian 90(TM) system (copyright 1990, Gaussian, Inc.),
 the Gaussian 88(TM) system (copyright 1988, Gaussian, Inc.),
 the Gaussian 86(TM) system (copyright 1986, Carnegie Mellon
 University), and the Gaussian 82(TM) system (copyright 1983,
 Carnegie Mellon University). Gaussian is a federally registered
 trademark of Gaussian, Inc.
  
 This software contains proprietary and confidential information,
 including trade secrets, belonging to Gaussian, Inc.
  
 This software is provided under written license and may be
 used, copied, transmitted, or stored only in accord with that
 written license.
  
 The following legend is applicable only to US Government
 contracts under FAR:
  
                    RESTRICTED RIGHTS LEGEND
  
 Use, reproduction and disclosure by the US Government is
 subject to restrictions as set forth in subparagraphs (a)
 and (c) of the Commercial Computer Software - Restricted
 Rights clause in FAR 52.227-19.
  
 Gaussian, Inc.
 340 Quinnipiac St., Bldg. 40, Wallingford CT 06492
  
  
 ---------------------------------------------------------------
 Warning -- This program may not be used in any manner that
 competes with the business of Gaussian, Inc. or will provide
 assistance to any competitor of Gaussian, Inc.  The licensee
 of this program is prohibited from giving any competitor of
 Gaussian, Inc. access to this program.  By using this program,
 the user acknowledges that Gaussian, Inc. is engaged in the
 business of creating and licensing software in the field of
 computational chemistry and represents and warrants to the
 licensee that it is not a competitor of Gaussian, Inc. and that
 it will not use this program in any manner prohibited above.
 ---------------------------------------------------------------
  

 Cite this work as:
 Gaussian 09, Revision D.01,
 M. J. Frisch, G. W. Trucks, H. B. Schlegel, G. E. Scuseria, 
 M. A. Robb, J. R. Cheeseman, G. Scalmani, V. Barone, B. Mennucci, 
 G. A. Petersson, H. Nakatsuji, M. Caricato, X. Li, H. P. Hratchian, 
 A. F. Izmaylov, J. Bloino, G. Zheng, J. L. Sonnenberg, M. Hada, 
 M. Ehara, K. Toyota, R. Fukuda, J. Hasegawa, M. Ishida, T. Nakajima, 
 Y. Honda, O. Kitao, H. Nakai, T. Vreven, J. A. Montgomery, Jr., 
 J. E. Peralta, F. Ogliaro, M. Bearpark, J. J. Heyd, E. Brothers, 
 K. N. Kudin, V. N. Staroverov, T. Keith, R. Kobayashi, J. Normand, 
 K. Raghavachari, A. Rendell, J. C. Burant, S. S. Iyengar, J. Tomasi, 
 M. Cossi, N. Rega, J. M. Millam, M. Klene, J. E. Knox, J. B. Cross, 
 V. Bakken, C. Adamo, J. Jaramillo, R. Gomperts, R. E. Stratmann, 
 O. Yazyev, A. J. Austin, R. Cammi, C. Pomelli, J. W. Ochterski, 
 R. L. Martin, K. Morokuma, V. G. Zakrzewski, G. A. Voth, 
 P. Salvador, J. J. Dannenberg, S. Dapprich, A. D. Daniels, 
 O. Farkas, J. B. Foresman, J. V. Ortiz, J. Cioslowski, 
 and D. J. Fox, Gaussian, Inc., Wallingford CT, 2013.
 
 ******************************************
 Gaussian 09:  IA32W-G09RevD.01 24-Apr-2013
                29-Mar-2026 
 ******************************************
 %chk=C:\Users\emman\Escritorio\quimica-enlaces\molecula\2H20.chk
 -------------
 # b3lyp/3-21g
 -------------
 1/38=1/1;
 2/12=2,17=6,18=5,40=1/2;
 3/5=5,11=2,16=1,25=1,30=1,74=-5/1,2,3;
 4//1;
 5/5=2,38=5/2;
 6/7=2,8=2,9=2,10=2,28=1/1;
 99/5=1,9=1/99;
 ------------------------------------------------
 Title Card Required - Distancia +2.00A - Paso 10
 ------------------------------------------------
 Symbolic Z-matrix:
 Charge =  0 Multiplicity = 1
 O                    -1.85392   0.51407   0. 
 H                    -0.89392   0.51407   0. 
 H                    -2.17437   1.41901   0. 
 O                     0.08391   2.80423   0. 
 H                     1.04391   2.80423   0. 
 H                    -0.23654   3.70917   0. 
 
                          Input orientation:                          
 ---------------------------------------------------------------------
 Center     Atomic      Atomic             Coordinates (Angstroms)
 Number     Number       Type             X           Y           Z
 ---------------------------------------------------------------------
      1          8           0       -1.853916    0.514072    0.000000
      2          1           0       -0.893916    0.514072    0.000000
      3          1           0       -2.174370    1.419008    0.000000
      4          8           0        0.083911    2.804231    0.000000
      5          1           0        1.043911    2.804231    0.000000
      6          1           0       -0.236544    3.709167    0.000000
 ---------------------------------------------------------------------
                    Distance matrix (angstroms):
                    1          2          3          4          5
     1  O    0.000000
     2  H    0.960000   0.000000
     3  H    0.960000   1.567952   0.000000
     4  O    3.000000   2.490175   2.649279   0.000000
     5  H    3.693539   3.000000   3.503738   0.960000   0.000000
     6  H    3.581134   3.262019   3.000000   0.960000   1.567952
                    6
     6  H    0.000000
 Stoichiometry    H4O2
 Framework group  CS[SG(H4O2)]
 Deg. of freedom     9
 Full point group                 CS      NOp   2
 Largest Abelian subgroup         CS      NOp   2
 Largest concise Abelian subgroup C1      NOp   1
                         Standard orientation:                         
 ---------------------------------------------------------------------
 Center     Atomic      Atomic             Coordinates (Angstroms)
 Number     Number       Type             X           Y           Z
 ---------------------------------------------------------------------
      1          8           0        0.009632   -1.610393    0.000000
      2          1           0        0.742482   -0.990288    0.000000
      3          1           0       -0.819535   -1.126572    0.000000
      4          8           0        0.009632    1.389607    0.000000
      5          1           0        0.742482    2.009712    0.000000
      6          1           0       -0.819535    1.873428    0.000000
 ---------------------------------------------------------------------
 Rotational constants (GHZ):    204.8460668      6.1513680      5.9720325
 Standard basis: 3-21G (6D, 7F)
 There are    22 symmetry adapted cartesian basis functions of A'  symmetry.
 There are     4 symmetry adapted cartesian basis functions of A"  symmetry.
 There are    22 symmetry adapted basis functions of A'  symmetry.
 There are     4 symmetry adapted basis functions of A"  symmetry.
    26 basis functions,    42 primitive gaussians,    26 cartesian basis functions
    10 alpha electrons       10 beta electrons
       nuclear repulsion energy        35.8956985984 Hartrees.
 NAtoms=    6 NActive=    6 NUniq=    6 SFac= 1.00D+00 NAtFMM=   60 NAOKFM=F Big=F
 Integral buffers will be    262144 words long.
 Raffenetti 2 integral format.
 Two-electron integral symmetry is turned on.
 One-electron integrals computed using PRISM.
 NBasis=    26 RedAO= T EigKep=  1.50D-01  NBF=    22     4
 NBsUse=    26 1.00D-06 EigRej= -1.00D+00 NBFU=    22     4
 ExpMin= 1.83D-01 ExpMax= 3.22D+02 ExpMxC= 3.22D+02 IAcc=1 IRadAn=         1 AccDes= 0.00D+00
 Harris functional with IExCor=  402 and IRadAn=       1 diagonalized for initial guess.
 HarFok:  IExCor=  402 AccDes= 0.00D+00 IRadAn=         1 IDoV= 1 UseB2=F ITyADJ=14
 ICtDFT=  3500011 ScaDFX=  1.000000  1.000000  1.000000  1.000000
 FoFCou: FMM=F IPFlag=           0 FMFlag=      100000 FMFlg1=           0
         NFxFlg=           0 DoJE=T BraDBF=F KetDBF=T FulRan=T
         wScrn=  0.000000 ICntrl=     500 IOpCl=  0 I1Cent=   200000004 NGrid=           0
         NMat0=    1 NMatS0=      1 NMatT0=    0 NMatD0=    1 NMtDS0=    0 NMtDT0=    0
 Petite list used in FoFCou.
 Initial guess orbital symmetries:
       Occupied  (A') (A') (A') (A') (A') (A') (A') (A') (A") (A")
       Virtual   (A') (A') (A') (A') (A') (A') (A') (A') (A") (A")
                 (A') (A') (A') (A') (A') (A')
 The electronic state of the initial guess is 1-A'.
 Keep R1 ints in memory in symmetry-blocked form, NReq=939158.
 Requested convergence on RMS density matrix=1.00D-08 within 128 cycles.
 Requested convergence on MAX density matrix=1.00D-06.
 Requested convergence on             energy=1.00D-06.
 No special actions if energy rises.
 Integral accuracy reduced to 1.0D-05 until final iterations.
 Initial convergence to 1.0D-05 achieved.  Increase integral accuracy.
 SCF Done:  E(RB3LYP) =  -151.953876233     A.U. after   10 cycles
            NFock= 10  Conv=0.78D-08     -V/T= 2.0060

 **********************************************************************

            Population analysis using the SCF density.

 **********************************************************************

 Orbital symmetries:
       Occupied  (A') (A') (A') (A') (A') (A') (A') (A") (A') (A")
       Virtual   (A') (A') (A') (A') (A') (A') (A') (A') (A") (A")
                 (A') (A') (A') (A') (A') (A')
 The electronic state is 1-A'.
 Alpha  occ. eigenvalues --  -19.02149 -18.95667  -1.01070  -0.94833  -0.54054
 Alpha  occ. eigenvalues --   -0.48056  -0.35170  -0.28355  -0.27962  -0.22349
 Alpha virt. eigenvalues --    0.07107   0.15884   0.17384   0.22690   0.91665
 Alpha virt. eigenvalues --    0.96159   1.00893   1.02444   1.41345   1.47364
 Alpha virt. eigenvalues --    1.49384   1.58863   1.62236   1.71485   2.71299
 Alpha virt. eigenvalues --    2.80591
          Condensed to atoms (all electrons):
               1          2          3          4          5          6
     1  O    8.173630   0.255141   0.255208  -0.001680   0.000172   0.000251
     2  H    0.255141   0.442907  -0.041926   0.012936  -0.000485  -0.000443
     3  H    0.255208  -0.041926   0.453546   0.006503  -0.000183  -0.000169
     4  O   -0.001680   0.012936   0.006503   8.140052   0.255356   0.254941
     5  H    0.000172  -0.000485  -0.000183   0.255356   0.438174  -0.039497
     6  H    0.000251  -0.000443  -0.000169   0.254941  -0.039497   0.439440
 Mulliken charges:
               1
     1  O   -0.682723
     2  H    0.331870
     3  H    0.327021
     4  O   -0.668108
     5  H    0.346463
     6  H    0.345478
 Sum of Mulliken charges =   0.00000
 Mulliken charges with hydrogens summed into heavy atoms:
               1
     1  O   -0.023832
     4  O    0.023832
 Electronic spatial extent (au):  <R**2>=            197.6687
 Charge=              0.0000 electrons
 Dipole moment (field-independent basis, Debye):
    X=             -0.3600    Y=              4.6992    Z=              0.0000  Tot=              4.7130
 Quadrupole moment (field-independent basis, Debye-Ang):
   XX=             -8.0224   YY=            -11.6237   ZZ=            -13.5539
   XY=              0.2960   XZ=              0.0000   YZ=              0.0000
 Traceless Quadrupole moment (field-independent basis, Debye-Ang):
   XX=              3.0443   YY=             -0.5570   ZZ=             -2.4872
   XY=              0.2960   XZ=              0.0000   YZ=              0.0000
 Octapole moment (field-independent basis, Debye-Ang**2):
  XXX=             -0.5187  YYY=             33.1868  ZZZ=              0.0000  XYY=             -0.6038
  XXY=              2.2773  XXZ=              0.0000  XZZ=             -0.0409  YZZ=              0.6114
  YYZ=              0.0000  XYZ=              0.0000
 Hexadecapole moment (field-independent basis, Debye-Ang**3):
 XXXX=            -11.2592 YYYY=           -168.7875 ZZZZ=             -8.3296 XXXY=             -0.2046
 XXXZ=              0.0000 YYYX=              2.2712 YYYZ=              0.0000 ZZZX=              0.0000
 ZZZY=              0.0000 XXYY=            -21.0849 XXZZ=             -3.7619 YYZZ=            -33.6588
 XXYZ=              0.0000 YYXZ=              0.0000 ZZXY=             -0.0550
 N-N= 3.589569859837D+01 E-N=-4.316968030276D+02  KE= 1.510519341508D+02
 Symmetry A'   KE= 1.416052145721D+02
 Symmetry A"   KE= 9.446719578708D+00
 1|1|UNPC-INANI_LAP|SP|RB3LYP|3-21G|H4O2|EMMAN|29-Mar-2026|0||# b3lyp/3
 -21g||Title Card Required - Distancia +2.00A - Paso 10||0,1|O,0,-1.853
 9157,0.51407231,0.|H,0,-0.8939157,0.51407231,0.|H,0,-2.17437029,1.4190
 0815,0.|O,0,0.08391102,2.80423117,0.|H,0,1.04391102,2.80423117,0.|H,0,
 -0.23654357,3.709167,0.||Version=IA32W-G09RevD.01|State=1-A'|HF=-151.9
 538762|RMSD=7.779e-009|Dipole=1.0860938,1.5028617,0.|Quadrupole=1.3632
 212,0.4859679,-1.8491891,-1.2838534,0.,0.|PG=CS [SG(H4O2)]||@


 IN SO FAR AS QUANTUM MECHANICS IS CORRECT, CHEMICAL 
 QUESTIONS ARE PROBLEMS IN APPLIED MATHEMATICS.

                    -- EYRING, WALTER, & KIMBALL, 1944
 Job cpu time:       0 days  0 hours  0 minutes  1.0 seconds.
 File lengths (MBytes):  RWF=      5 Int=      0 D2E=      0 Chk=      1 Scr=      1
 Normal termination of Gaussian 09 at Sun Mar 29 02:50:37 2026.
