 Entering Link 1 = C:\G09W\l1.exe PID=      6184.
  
 Copyright (c) 1988,1990,1992,1993,1995,1998,2003,2009,2013,
            Gaussian, Inc.  All Rights Reserved.
  
 This is part of the Gaussian(R) 09 program.  It is based on
 the Gaussian(R) 03 system (copyright 2003, Gaussian, Inc.),
 the Gaussian(R) 98 system (copyright 1998, Gaussian, Inc.),
 the Gaussian(R) 94 system (copyright 1995, Gaussian, Inc.),
 the Gaussian 92(TM) system (copyright 1992, Gaussian, Inc.),
 the Gaussian 90(TM) system (copyright 1990, Gaussian, Inc.),
 the Gaussian 88(TM) system (copyright 1988, Gaussian, Inc.),
 the Gaussian 86(TM) system (copyright 1986, Carnegie Mellon
 University), and the Gaussian 82(TM) system (copyright 1983,
 Carnegie Mellon University). Gaussian is a federally registered
 trademark of Gaussian, Inc.
  
 This software contains proprietary and confidential information,
 including trade secrets, belonging to Gaussian, Inc.
  
 This software is provided under written license and may be
 used, copied, transmitted, or stored only in accord with that
 written license.
  
 The following legend is applicable only to US Government
 contracts under FAR:
  
                    RESTRICTED RIGHTS LEGEND
  
 Use, reproduction and disclosure by the US Government is
 subject to restrictions as set forth in subparagraphs (a)
 and (c) of the Commercial Computer Software - Restricted
 Rights clause in FAR 52.227-19.
  
 Gaussian, Inc.
 340 Quinnipiac St., Bldg. 40, Wallingford CT 06492
  
  
 ---------------------------------------------------------------
 Warning -- This program may not be used in any manner that
 competes with the business of Gaussian, Inc. or will provide
 assistance to any competitor of Gaussian, Inc.  The licensee
 of this program is prohibited from giving any competitor of
 Gaussian, Inc. access to this program.  By using this program,
 the user acknowledges that Gaussian, Inc. is engaged in the
 business of creating and licensing software in the field of
 computational chemistry and represents and warrants to the
 licensee that it is not a competitor of Gaussian, Inc. and that
 it will not use this program in any manner prohibited above.
 ---------------------------------------------------------------
  

 Cite this work as:
 Gaussian 09, Revision D.01,
 M. J. Frisch, G. W. Trucks, H. B. Schlegel, G. E. Scuseria, 
 M. A. Robb, J. R. Cheeseman, G. Scalmani, V. Barone, B. Mennucci, 
 G. A. Petersson, H. Nakatsuji, M. Caricato, X. Li, H. P. Hratchian, 
 A. F. Izmaylov, J. Bloino, G. Zheng, J. L. Sonnenberg, M. Hada, 
 M. Ehara, K. Toyota, R. Fukuda, J. Hasegawa, M. Ishida, T. Nakajima, 
 Y. Honda, O. Kitao, H. Nakai, T. Vreven, J. A. Montgomery, Jr., 
 J. E. Peralta, F. Ogliaro, M. Bearpark, J. J. Heyd, E. Brothers, 
 K. N. Kudin, V. N. Staroverov, T. Keith, R. Kobayashi, J. Normand, 
 K. Raghavachari, A. Rendell, J. C. Burant, S. S. Iyengar, J. Tomasi, 
 M. Cossi, N. Rega, J. M. Millam, M. Klene, J. E. Knox, J. B. Cross, 
 V. Bakken, C. Adamo, J. Jaramillo, R. Gomperts, R. E. Stratmann, 
 O. Yazyev, A. J. Austin, R. Cammi, C. Pomelli, J. W. Ochterski, 
 R. L. Martin, K. Morokuma, V. G. Zakrzewski, G. A. Voth, 
 P. Salvador, J. J. Dannenberg, S. Dapprich, A. D. Daniels, 
 O. Farkas, J. B. Foresman, J. V. Ortiz, J. Cioslowski, 
 and D. J. Fox, Gaussian, Inc., Wallingford CT, 2013.
 
 ******************************************
 Gaussian 09:  IA32W-G09RevD.01 24-Apr-2013
                29-Mar-2026 
 ******************************************
 %chk=C:\Users\emman\Escritorio\quimica-enlaces\molecula\2H20.chk
 -------------
 # b3lyp/3-21g
 -------------
 1/38=1/1;
 2/12=2,17=6,18=5,40=1/2;
 3/5=5,11=2,16=1,25=1,30=1,74=-5/1,2,3;
 4//1;
 5/5=2,38=5/2;
 6/7=2,8=2,9=2,10=2,28=1/1;
 99/5=1,9=1/99;
 -----------------------------------------------
 Title Card Required - Distancia +0.40A - Paso 2
 -----------------------------------------------
 Symbolic Z-matrix:
 Charge =  0 Multiplicity = 1
 O                    -1.85392   0.51407   0. 
 H                    -0.89392   0.51407   0. 
 H                    -2.17437   1.41901   0. 
 O                    -0.9496    1.58281   0. 
 H                     0.0104    1.58281   0. 
 H                    -1.27005   2.48775   0. 
 
                          Input orientation:                          
 ---------------------------------------------------------------------
 Center     Atomic      Atomic             Coordinates (Angstroms)
 Number     Number       Type             X           Y           Z
 ---------------------------------------------------------------------
      1          8           0       -1.853916    0.514072    0.000000
      2          1           0       -0.893916    0.514072    0.000000
      3          1           0       -2.174370    1.419008    0.000000
      4          8           0       -0.949597    1.582813    0.000000
      5          1           0        0.010403    1.582813    0.000000
      6          1           0       -1.270051    2.487749    0.000000
 ---------------------------------------------------------------------
                    Distance matrix (angstroms):
                    1          2          3          4          5
     1  O    0.000000
     2  H    0.960000   0.000000
     3  H    0.960000   1.567952   0.000000
     4  O    1.400000   1.070190   1.235679   0.000000
     5  H    2.148928   1.400000   2.190906   0.960000   0.000000
     6  H    2.058227   2.009198   1.400000   0.960000   1.567952
                    6
     6  H    0.000000
 Stoichiometry    H4O2
 Framework group  CS[SG(H4O2)]
 Deg. of freedom     9
 Full point group                 CS      NOp   2
 Largest Abelian subgroup         CS      NOp   2
 Largest concise Abelian subgroup C1      NOp   1
                         Standard orientation:                         
 ---------------------------------------------------------------------
 Center     Atomic      Atomic             Coordinates (Angstroms)
 Number     Number       Type             X           Y           Z
 ---------------------------------------------------------------------
      1          8           0        0.009632   -0.810393    0.000000
      2          1           0        0.742482   -0.190288    0.000000
      3          1           0       -0.819535   -0.326572    0.000000
      4          8           0        0.009632    0.589608    0.000000
      5          1           0        0.742482    1.209712    0.000000
      6          1           0       -0.819535    1.073428    0.000000
 ---------------------------------------------------------------------
 Rotational constants (GHZ):    204.9038586     26.9382017     23.8081971
 Standard basis: 3-21G (6D, 7F)
 There are    22 symmetry adapted cartesian basis functions of A'  symmetry.
 There are     4 symmetry adapted cartesian basis functions of A"  symmetry.
 There are    22 symmetry adapted basis functions of A'  symmetry.
 There are     4 symmetry adapted basis functions of A"  symmetry.
    26 basis functions,    42 primitive gaussians,    26 cartesian basis functions
    10 alpha electrons       10 beta electrons
       nuclear repulsion energy        55.1746558088 Hartrees.
 NAtoms=    6 NActive=    6 NUniq=    6 SFac= 1.00D+00 NAtFMM=   60 NAOKFM=F Big=F
 Integral buffers will be    262144 words long.
 Raffenetti 2 integral format.
 Two-electron integral symmetry is turned on.
 One-electron integrals computed using PRISM.
 NBasis=    26 RedAO= T EigKep=  1.06D-01  NBF=    22     4
 NBsUse=    26 1.00D-06 EigRej= -1.00D+00 NBFU=    22     4
 ExpMin= 1.83D-01 ExpMax= 3.22D+02 ExpMxC= 3.22D+02 IAcc=1 IRadAn=         1 AccDes= 0.00D+00
 Harris functional with IExCor=  402 and IRadAn=       1 diagonalized for initial guess.
 HarFok:  IExCor=  402 AccDes= 0.00D+00 IRadAn=         1 IDoV= 1 UseB2=F ITyADJ=14
 ICtDFT=  3500011 ScaDFX=  1.000000  1.000000  1.000000  1.000000
 FoFCou: FMM=F IPFlag=           0 FMFlag=      100000 FMFlg1=           0
         NFxFlg=           0 DoJE=T BraDBF=F KetDBF=T FulRan=T
         wScrn=  0.000000 ICntrl=     500 IOpCl=  0 I1Cent=   200000004 NGrid=           0
         NMat0=    1 NMatS0=      1 NMatT0=    0 NMatD0=    1 NMtDS0=    0 NMtDT0=    0
 Petite list used in FoFCou.
 Initial guess orbital symmetries:
       Occupied  (A') (A') (A') (A') (A') (A') (A') (A") (A") (A')
       Virtual   (A') (A') (A') (A') (A') (A') (A') (A') (A") (A")
                 (A') (A') (A') (A') (A') (A')
 The electronic state of the initial guess is 1-A'.
 Keep R1 ints in memory in symmetry-blocked form, NReq=939158.
 Requested convergence on RMS density matrix=1.00D-08 within 128 cycles.
 Requested convergence on MAX density matrix=1.00D-06.
 Requested convergence on             energy=1.00D-06.
 No special actions if energy rises.
 Integral accuracy reduced to 1.0D-05 until final iterations.
 Initial convergence to 1.0D-05 achieved.  Increase integral accuracy.
 SCF Done:  E(RB3LYP) =  -151.395678421     A.U. after   16 cycles
            NFock= 16  Conv=0.56D-08     -V/T= 1.9876

 **********************************************************************

            Population analysis using the SCF density.

 **********************************************************************

 Orbital symmetries:
       Occupied  (A') (A') (A') (A') (A') (A') (A') (A") (A") (A')
       Virtual   (A') (A') (A') (A') (A') (A') (A') (A') (A") (A")
                 (A') (A') (A') (A') (A') (A')
 The electronic state is 1-A'.
 Alpha  occ. eigenvalues --  -19.06007 -18.98573  -1.26308  -0.93976  -0.73431
 Alpha  occ. eigenvalues --   -0.51733  -0.44797  -0.43306  -0.22432  -0.08629
 Alpha virt. eigenvalues --    0.05168   0.12779   0.18078   0.24290   0.81289
 Alpha virt. eigenvalues --    0.91672   0.97680   1.11169   1.31566   1.51484
 Alpha virt. eigenvalues --    1.52065   1.66199   1.79186   2.04315   2.80355
 Alpha virt. eigenvalues --    2.91758
          Condensed to atoms (all electrons):
               1          2          3          4          5          6
     1  O    8.565254   0.335598   0.328332  -0.866246   0.086614   0.082167
     2  H    0.335598   0.374642  -0.047967  -0.177300   0.029061   0.035172
     3  H    0.328332  -0.047967   0.439227  -0.183847   0.035538   0.034341
     4  O   -0.866246  -0.177300  -0.183847  10.371401  -0.279024  -0.244072
     5  H    0.086614   0.029061   0.035538  -0.279024   0.834560   0.156869
     6  H    0.082167   0.035172   0.034341  -0.244072   0.156869   0.764445
 Mulliken charges:
               1
     1  O   -0.531718
     2  H    0.450794
     3  H    0.394376
     4  O   -0.620912
     5  H    0.136383
     6  H    0.171077
 Sum of Mulliken charges =   0.00000
 Mulliken charges with hydrogens summed into heavy atoms:
               1
     1  O    0.313452
     4  O   -0.313452
 Electronic spatial extent (au):  <R**2>=             77.3691
 Charge=              0.0000 electrons
 Dipole moment (field-independent basis, Debye):
    X=             -0.2169    Y=              1.3765    Z=              0.0000  Tot=              1.3935
 Quadrupole moment (field-independent basis, Debye-Ang):
   XX=             -9.9817   YY=            -16.5531   ZZ=            -13.9310
   XY=              0.1361   XZ=              0.0000   YZ=              0.0000
 Traceless Quadrupole moment (field-independent basis, Debye-Ang):
   XX=              3.5069   YY=             -3.0645   ZZ=             -0.4424
   XY=              0.1361   XZ=              0.0000   YZ=              0.0000
 Octapole moment (field-independent basis, Debye-Ang**2):
  XXX=             -0.2213  YYY=             -0.8542  ZZZ=              0.0000  XYY=             -0.2991
  XXY=             -1.0355  XXZ=              0.0000  XZZ=              0.0112  YZZ=             -0.7671
  YYZ=              0.0000  XYZ=              0.0000
 Hexadecapole moment (field-independent basis, Debye-Ang**3):
 XXXX=            -17.0820 YYYY=            -62.9573 ZZZZ=             -9.2165 XXXY=             -0.2440
 XXXZ=              0.0000 YYYX=             -0.3553 YYYZ=              0.0000 ZZZX=              0.0000
 ZZZY=              0.0000 XXYY=            -12.3586 XXZZ=             -4.6699 YYZZ=            -12.0238
 XXYZ=              0.0000 YYXZ=              0.0000 ZZXY=             -0.0796
 N-N= 5.517465580875D+01 E-N=-4.700842069490D+02  KE= 1.533032748216D+02
 Symmetry A'   KE= 1.436301606913D+02
 Symmetry A"   KE= 9.673114130278D+00
 1|1|UNPC-INANI_LAP|SP|RB3LYP|3-21G|H4O2|EMMAN|29-Mar-2026|0||# b3lyp/3
 -21g||Title Card Required - Distancia +0.40A - Paso 2||0,1|O,0,-1.8539
 157,0.51407231,0.|H,0,-0.8939157,0.51407231,0.|H,0,-2.17437029,1.41900
 815,0.|O,0,-0.94959656,1.58281311,0.|H,0,0.01040344,1.58281311,0.|H,0,
 -1.27005115,2.48774894,0.||Version=IA32W-G09RevD.01|State=1-A'|HF=-151
 .3956784|RMSD=5.603e-009|Dipole=0.284678,0.4685393,0.|Quadrupole=0.668
 5676,-0.3396827,-0.3288849,-2.392389,0.,0.|PG=CS [SG(H4O2)]||@


 IN SO FAR AS QUANTUM MECHANICS IS CORRECT, CHEMICAL 
 QUESTIONS ARE PROBLEMS IN APPLIED MATHEMATICS.

                    -- EYRING, WALTER, & KIMBALL, 1944
 Job cpu time:       0 days  0 hours  0 minutes  3.0 seconds.
 File lengths (MBytes):  RWF=      5 Int=      0 D2E=      0 Chk=      1 Scr=      1
 Normal termination of Gaussian 09 at Sun Mar 29 02:50:28 2026.
